# vtk DataFile Version 1.0
Mesh from obj
ASCII
DATASET UNSTRUCTURED_GRID
POINTS 4151 float
0.495856 0.086276 0.230432
0.523480 0.080467 0.204331
0.508802 0.100051 0.208946
0.521380 0.053453 0.224843
0.530861 0.098926 0.181656
0.494123 0.119635 0.213560
0.496204 0.056326 0.249303
0.543721 0.048100 0.197425
0.547364 0.072501 0.175670
0.513506 0.122916 0.187130
0.471539 0.115071 0.237259
0.470753 0.083753 0.252488
0.518425 0.026971 0.245390
0.539394 0.022625 0.218429
0.550527 0.097804 0.154189
0.533052 0.124885 0.160467
0.493113 0.149218 0.194112
0.471898 0.145680 0.220543
0.471667 0.056835 0.272252
0.493361 0.029127 0.268230
0.559246 0.018152 0.190790
0.562283 0.043383 0.168812
0.563755 0.068238 0.146376
0.513160 0.151122 0.166584
0.444850 0.107166 0.255434
0.446815 0.138709 0.242983
0.445515 0.079245 0.273367
0.512535 -0.000091 0.264553
0.534874 -0.003619 0.239483
0.553687 -0.008022 0.211419
0.563026 0.092584 0.123194
0.548028 0.121902 0.130369
0.529700 0.149629 0.136798
0.470884 0.174543 0.200942
0.491448 0.177041 0.173001
0.445130 0.166651 0.222843
0.467201 0.029143 0.287195
0.444422 0.052588 0.289140
0.486279 0.002048 0.284653
0.569455 -0.013174 0.181802
0.575794 0.012931 0.161501
0.578472 0.038450 0.139453
0.576079 0.062221 0.115667
0.509108 0.176288 0.143082
0.418217 0.126875 0.258020
0.419087 0.098951 0.275449
0.417740 0.156174 0.241378
0.421393 0.073189 0.294752
0.502949 -0.027044 0.282609
0.525607 -0.030838 0.257653
0.544500 -0.034947 0.229902
0.563160 -0.039477 0.202172
0.571285 0.084871 0.091229
0.557726 0.115112 0.098346
0.540765 0.143691 0.104859
0.521991 0.171387 0.111104
0.466409 0.200171 0.177725
0.442559 0.194254 0.202434
0.486201 0.201511 0.148792
0.416323 0.184958 0.223549
0.442766 0.030065 0.304099
0.459335 0.004541 0.302303
0.423552 0.045645 0.310134
0.472584 -0.023807 0.296572
0.585202 -0.018718 0.152420
0.579128 -0.044755 0.172814
0.590820 0.007394 0.131696
0.590176 0.032031 0.108509
0.585104 0.054690 0.084131
0.501048 0.197966 0.117239
0.389554 0.143282 0.257138
0.391566 0.116485 0.276724
0.394565 0.090824 0.298029
0.388591 0.172991 0.241336
0.397135 0.061955 0.315210
0.483862 -0.053852 0.290681
0.511942 -0.057908 0.273428
0.531704 -0.061874 0.246238
0.553123 -0.066062 0.220640
0.572243 -0.070704 0.193085
0.565806 0.106885 0.066236
0.579534 0.076722 0.059446
0.549952 0.136092 0.072670
0.531218 0.163720 0.078685
0.511240 0.190534 0.084514
0.438201 0.220207 0.180820
0.459637 0.223397 0.153150
0.415020 0.214733 0.206690
0.477104 0.222168 0.122624
0.388064 0.204173 0.227657
0.430756 0.014450 0.318779
0.444816 -0.017475 0.316966
0.401276 0.028469 0.325262
0.457193 -0.048636 0.310471
0.594689 -0.050490 0.143352
0.598146 -0.024961 0.122200
0.588210 -0.076161 0.163424
0.599354 0.000031 0.100040
0.596928 0.023710 0.076596
0.592772 0.046404 0.052422
0.488776 0.215552 0.090149
0.361968 0.129943 0.273563
0.360238 0.158864 0.256553
0.365042 0.105250 0.296679
0.368848 0.078021 0.317525
0.358950 0.189078 0.241560
0.371718 0.044169 0.326519
0.466575 -0.079303 0.302781
0.495066 -0.084229 0.285912
0.518644 -0.088581 0.263117
0.539478 -0.092708 0.237183
0.561360 -0.096919 0.211852
0.577688 -0.101754 0.182188
0.573027 0.097759 0.034275
0.557481 0.127050 0.040519
0.586794 0.067805 0.027677
0.539043 0.154773 0.046309
0.519339 0.181706 0.051735
0.498553 0.207796 0.057136
0.410945 0.241193 0.185308
0.431860 0.243690 0.157165
0.449997 0.243062 0.127062
0.385637 0.232850 0.208885
0.463852 0.238214 0.095166
0.357506 0.219347 0.226440
0.409417 -0.005537 0.332081
0.429628 -0.040338 0.332221
0.375967 0.007504 0.332050
0.444008 -0.072750 0.326133
0.600886 -0.082386 0.132685
0.605028 -0.057232 0.112264
0.605193 -0.032516 0.090521
0.592983 -0.107470 0.151879
0.604160 -0.008504 0.068080
0.602127 0.014711 0.044692
0.597990 0.036861 0.020651
0.474944 0.231393 0.062407
0.331840 0.141270 0.266623
0.334597 0.115858 0.289369
0.330031 0.172514 0.253848
0.338331 0.091645 0.314474
0.342670 0.060756 0.330264
0.328176 0.203249 0.239478
0.347396 0.027128 0.339790
0.452360 -0.104027 0.319379
0.478107 -0.109956 0.299214
0.504970 -0.114968 0.279884
0.526756 -0.119118 0.254802
0.547812 -0.123241 0.228850
0.566279 -0.127470 0.200780
0.582200 -0.132566 0.170734
0.579125 0.087752 0.002374
0.564498 0.117154 0.008514
0.546584 0.145253 0.014121
0.591828 0.057616 -0.004159
0.526835 0.172213 0.019256
0.506892 0.199032 0.024233
0.484406 0.223718 0.029253
0.402256 0.260579 0.158796
0.378777 0.254066 0.183516
0.422331 0.262708 0.130492
0.437519 0.259080 0.099559
0.353590 0.245361 0.205839
0.449607 0.253093 0.067027
0.326584 0.234226 0.225715
0.382810 -0.027675 0.339203
0.413735 -0.035803 0.338468
0.417738 -0.065545 0.341745
0.358010 -0.011585 0.356818
0.428769 -0.096920 0.341451
0.609588 -0.089688 0.101086
0.606217 -0.114326 0.120882
0.609174 -0.065146 0.080216
0.608427 -0.041077 0.058591
0.597832 -0.138527 0.139971
0.608359 -0.017520 0.036250
0.606205 0.005044 0.012975
0.601844 0.026534 -0.011106
0.459819 0.246175 0.034296
0.301582 0.154616 0.264501
0.304299 0.123010 0.276472
0.307432 0.100020 0.303413
0.300218 0.187907 0.256321
0.311837 0.074104 0.327543
0.317355 0.042095 0.340357
0.297751 0.218796 0.241679
0.324626 0.015166 0.357924
0.435927 -0.128728 0.334415
0.458857 -0.134857 0.310208
0.486210 -0.141045 0.291543
0.509705 -0.145161 0.268033
0.534212 -0.149625 0.245590
0.552907 -0.153498 0.217790
0.571617 -0.157961 0.190053
0.587847 -0.163491 0.160206
0.569964 0.105890 -0.023337
0.582611 0.076011 -0.029230
0.552703 0.134112 -0.017790
0.533661 0.161579 -0.012892
0.592956 0.045661 -0.035623
0.514093 0.188929 -0.008250
0.492617 0.214739 -0.003438
0.468216 0.237787 0.001305
0.370753 0.273831 0.158051
0.391438 0.276659 0.131444
0.348161 0.269539 0.183391
0.409662 0.277687 0.102795
0.422884 0.272634 0.071530
0.322665 0.261234 0.205939
0.433528 0.266328 0.039154
0.295051 0.248815 0.225036
0.362101 -0.048798 0.359194
0.390107 -0.058505 0.349443
0.400461 -0.088850 0.355738
0.331620 -0.007902 0.370937
0.408514 -0.120468 0.352918
0.613291 -0.097624 0.069167
0.614023 -0.123107 0.088761
0.609122 -0.146254 0.107034
0.612136 -0.073514 0.048274
0.611307 -0.050068 0.026876
0.600128 -0.169929 0.128282
0.611284 -0.027257 0.004806
0.608937 -0.005432 -0.018326
0.601214 0.014479 -0.042146
0.442474 0.258892 0.006418
0.273072 0.171702 0.272470
0.274474 0.137472 0.278023
0.277042 0.104584 0.287092
0.281136 0.079900 0.313392
0.269897 0.202911 0.257401
0.286771 0.052757 0.335218
0.293949 0.027670 0.357283
0.266093 0.230350 0.237132
0.337238 -0.037304 0.376661
0.301146 0.001182 0.374040
0.414779 -0.152307 0.344608
0.438344 -0.159120 0.319932
0.462819 -0.165254 0.297137
0.489053 -0.170586 0.276407
0.516654 -0.175646 0.258405
0.538533 -0.179632 0.233509
0.559563 -0.183686 0.207598
0.575471 -0.188347 0.178393
0.590635 -0.194789 0.149132
0.572285 0.092507 -0.054772
0.555987 0.120652 -0.048856
0.582725 0.062603 -0.060566
0.539069 0.149242 -0.044378
0.520146 0.177069 -0.040263
0.589876 0.031904 -0.066021
0.499472 0.203911 -0.035888
0.474955 0.227199 -0.031075
0.449353 0.249036 -0.026063
0.361321 0.291497 0.131893
0.341158 0.290680 0.158347
0.378482 0.289790 0.104100
0.316688 0.283521 0.181238
0.394089 0.288592 0.074986
0.405692 0.283796 0.043754
0.290335 0.273167 0.201493
0.415330 0.277668 0.011524
0.262486 0.257997 0.217072
0.339975 -0.070047 0.373492
0.370292 -0.080198 0.364767
0.380946 -0.111137 0.370898
0.308708 -0.026092 0.387177
0.387931 -0.143517 0.365444
0.615781 -0.105483 0.036975
0.616110 -0.130174 0.056000
0.620288 -0.160992 0.072006
0.614831 -0.176507 0.101237
0.614963 -0.082109 0.016902
0.613440 -0.059600 -0.004045
0.616921 -0.200351 0.132002
0.610518 -0.038045 -0.026011
0.606514 -0.017561 -0.048719
0.597749 0.001241 -0.072066
0.422685 0.269156 -0.020953
0.241823 0.186303 0.272622
0.245084 0.153870 0.284831
0.246460 0.118801 0.286853
0.250461 0.085089 0.298197
0.255304 0.060890 0.325199
0.238430 0.216595 0.255388
0.264798 0.041747 0.356350
0.271709 0.014685 0.376809
0.234477 0.243128 0.233226
0.314423 -0.058236 0.391634
0.277939 -0.015452 0.389580
0.419746 -0.184227 0.332114
0.393261 -0.175269 0.354476
0.440500 -0.190069 0.304043
0.468120 -0.196340 0.283982
0.498425 -0.201663 0.269360
0.524814 -0.205915 0.249068
0.547614 -0.209577 0.224690
0.564296 -0.213359 0.195658
0.578054 -0.218097 0.165831
0.606664 -0.222078 0.151026
0.569144 0.076213 -0.084875
0.554582 0.103488 -0.078300
0.539652 0.132666 -0.074295
0.577609 0.047100 -0.090574
0.522225 0.161588 -0.070807
0.503692 0.190145 -0.067655
0.583431 0.016827 -0.095060
0.480046 0.214731 -0.063179
0.453928 0.236458 -0.058312
0.428057 0.258126 -0.053369
0.348819 0.304557 0.105401
0.331399 0.304410 0.129571
0.309910 0.301855 0.153687
0.364221 0.302377 0.077923
0.284617 0.292854 0.174472
0.376543 0.298513 0.048132
0.386478 0.293592 0.016629
0.257833 0.281398 0.192789
0.394480 0.286804 -0.015525
0.230443 0.267766 0.209370
0.317900 -0.091139 0.386808
0.349265 -0.101606 0.379601
0.358351 -0.133587 0.381347
0.284977 -0.046038 0.401696
0.362693 -0.164586 0.369347
0.617603 -0.136697 0.023849
0.616555 -0.113479 0.004989
0.624866 -0.159774 0.041360
0.642856 -0.172098 0.087206
0.632289 -0.185473 0.112635
0.614911 -0.090941 -0.014440
0.610027 -0.069411 -0.035195
0.641526 -0.214284 0.153461
0.606313 -0.049870 -0.055513
0.602886 -0.030475 -0.077770
0.590701 -0.013032 -0.100210
0.401019 0.277951 -0.047872
0.210050 0.199340 0.268552
0.213671 0.167762 0.283709
0.216603 0.133747 0.291725
0.219652 0.099476 0.298195
0.222909 0.068695 0.312107
0.227181 0.055752 0.347494
0.206393 0.228231 0.249145
0.243877 0.028889 0.378079
0.248355 -0.001878 0.393096
0.202500 0.254219 0.226354
0.289656 -0.079267 0.400811
0.253468 -0.034301 0.402857
0.397440 -0.206350 0.341620
0.421452 -0.216521 0.314752
0.369203 -0.196229 0.361842
0.451315 -0.224055 0.297272
0.480282 -0.228491 0.279864
0.509519 -0.232723 0.262744
0.534330 -0.235820 0.240248
0.553698 -0.238580 0.212365
0.567615 -0.242052 0.181495
0.594251 -0.245091 0.165620
0.650130 -0.163650 0.057577
[...]
POINT_DATA 4151

VECTORS fields float
0.768570 -0.324203 -0.551537
0.685349 -0.396615 -0.610731
0.708902 -0.358419 -0.607449
0.700941 -0.418752 -0.577346
0.666306 -0.388868 -0.636253
0.736736 -0.311700 -0.600052
0.778045 -0.378939 -0.501050
0.617829 -0.451314 -0.643897
0.594993 -0.440098 -0.672530
0.692392 -0.361577 -0.624384
0.827263 -0.218175 -0.517721
0.842670 -0.293233 -0.451576
0.704994 -0.419553 -0.571803
0.613180 -0.456943 -0.644370
0.546035 -0.500286 -0.671982
0.630973 -0.459253 -0.625267
0.711861 -0.338600 -0.615307
0.809033 -0.257371 -0.528419
0.846498 -0.313650 -0.430191
0.791742 -0.340642 -0.507057
0.538377 -0.453543 -0.710245
0.538865 -0.504152 -0.674875
0.484726 -0.563149 -0.669256
0.666930 -0.425302 -0.611819
0.898498 -0.191303 -0.395101
0.914483 -0.149171 -0.376124
0.878862 -0.285291 -0.382375
0.725348 -0.355552 -0.589451
0.601549 -0.389630 -0.697372
0.527754 -0.394391 -0.752284
0.426211 -0.708600 -0.562344
0.514218 -0.675509 -0.528458
0.583727 -0.615846 -0.529147
0.817935 -0.278387 -0.503471
0.714002 -0.406374 -0.570142
0.912829 -0.163162 -0.374328
0.844711 -0.295963 -0.445947
0.859882 -0.304819 -0.409497
0.830299 -0.274442 -0.485063
0.468171 -0.401689 -0.787059
0.479007 -0.449404 -0.754047
0.467001 -0.609345 -0.640788
0.423847 -0.745653 -0.514155
0.637385 -0.558442 -0.530927
0.946637 -0.134457 -0.292916
0.904051 -0.254424 -0.343454
0.956813 -0.089036 -0.276732
0.876690 -0.302093 -0.374373
0.800475 -0.204364 -0.563450
0.609222 -0.242382 -0.755049
0.561180 -0.245949 -0.790308
0.505047 -0.355418 -0.786515
0.401355 -0.804849 -0.437187
0.449762 -0.789722 -0.417197
0.526989 -0.754910 -0.390376
0.575811 -0.713622 -0.398980
0.812043 -0.329037 -0.481997
0.877872 -0.195542 -0.437155
0.720131 -0.485685 -0.495501
0.918730 -0.105239 -0.380604
0.835080 -0.324890 -0.443946
0.822142 -0.267493 -0.502523
0.885709 -0.272479 -0.375866
0.834702 -0.198880 -0.513537
0.433976 -0.415202 -0.799545
0.459511 -0.428157 -0.778159
0.373493 -0.554377 -0.743753
0.362646 -0.783678 -0.504318
0.388304 -0.828333 -0.403838
0.642784 -0.653775 -0.399258
0.967519 -0.087440 -0.237193
0.954565 -0.170631 -0.244319
0.931505 -0.236486 -0.276355
0.958549 -0.050758 -0.280370
0.940728 -0.198708 -0.274858
0.836425 -0.169548 -0.521198
0.711728 -0.145657 -0.687188
0.597052 -0.185137 -0.780547
0.590940 -0.253376 -0.765892
0.490005 -0.326928 -0.808092
0.428848 -0.821931 -0.374860
0.398826 -0.828751 -0.392567
0.507366 -0.801784 -0.315787
0.560064 -0.774488 -0.294102
0.608386 -0.736235 -0.296353
0.825631 -0.279436 -0.490152
0.790554 -0.399872 -0.463817
0.874935 -0.154520 -0.458925
0.728695 -0.563028 -0.389877
0.943805 -0.040091 -0.328062
0.888489 -0.239841 -0.391233
0.829946 -0.252989 -0.497178
0.965985 -0.165715 -0.198526
0.757548 -0.256302 -0.600359
0.377063 -0.475141 -0.795025
0.297384 -0.580777 -0.757800
0.419633 -0.337741 -0.842520
0.239615 -0.776982 -0.582137
0.280989 -0.863173 -0.419497
0.334760 -0.862700 -0.379058
0.681142 -0.667656 -0.300469
0.989968 -0.052691 -0.131099
0.985822 -0.016557 -0.166975
0.982149 -0.121126 -0.143915
0.969215 -0.156761 -0.189864
0.979596 0.010639 -0.200697
0.963585 -0.158576 -0.215306
0.762425 -0.276383 -0.585082
0.787429 -0.235520 -0.569637
0.636595 -0.249470 -0.729734
0.618738 -0.264018 -0.739904
0.549752 -0.244353 -0.798789
0.453948 -0.225482 -0.862026
0.423760 -0.847156 -0.320552
0.495024 -0.823768 -0.276328
0.371429 -0.872793 -0.316660
0.557959 -0.792233 -0.247081
0.584906 -0.767781 -0.261529
0.644917 -0.711766 -0.278334
0.880608 -0.217134 -0.421168
0.819709 -0.351847 -0.451975
0.776532 -0.485219 -0.401945
0.940781 -0.069592 -0.331795
0.739263 -0.591880 -0.321198
0.969162 0.016995 -0.245839
0.954765 -0.199165 -0.220809
0.829620 -0.292360 -0.475664
0.935781 -0.226258 -0.270410
0.739728 -0.317805 -0.593129
0.311393 -0.436854 -0.843915
0.217307 -0.681394 -0.698913
0.166193 -0.824896 -0.540302
0.403749 -0.266557 -0.875177
0.178262 -0.858094 -0.481558
0.229585 -0.880353 -0.415053
0.284722 -0.903619 -0.320009
0.708786 -0.642555 -0.291112
0.998471 0.021835 -0.050787
0.999379 0.033235 -0.011676
0.984971 0.002025 -0.172706
0.997699 -0.054424 -0.040429
0.981097 -0.140563 -0.133008
0.969920 0.008895 -0.243261
0.928149 -0.257140 -0.269107
0.705745 -0.291495 -0.645721
0.790216 -0.247952 -0.560427
0.710551 -0.216471 -0.669520
0.633949 -0.251702 -0.731269
0.573979 -0.255390 -0.778026
0.494928 -0.233337 -0.837019
0.438485 -0.295505 -0.848768
0.402901 -0.888966 -0.217738
0.481360 -0.847898 -0.222177
0.550974 -0.807920 -0.209031
0.339906 -0.928562 -0.149116
0.574175 -0.783576 -0.237344
0.612690 -0.746039 -0.260839
0.685472 -0.678788 -0.263391
0.898094 -0.229874 -0.374947
0.927277 -0.124307 -0.353137
0.839078 -0.376989 -0.392209
0.777434 -0.524186 -0.347600
0.939714 -0.051244 -0.338100
0.754238 -0.581835 -0.304292
0.954450 0.007078 -0.298287
0.919080 -0.272039 -0.285108
0.958657 -0.221124 -0.179113
0.878063 -0.295088 -0.376733
0.822497 -0.381959 -0.421433
0.790556 -0.303892 -0.531669
0.166420 -0.770375 -0.615489
0.281276 -0.423582 -0.861082
0.121833 -0.915111 -0.384355
0.118063 -0.875395 -0.468769
0.364151 -0.295636 -0.883172
0.141956 -0.842989 -0.518862
0.195032 -0.907568 -0.371864
0.263387 -0.961124 -0.082867
0.738180 -0.617761 -0.271039
0.972232 -0.041079 -0.230387
0.999595 0.025821 -0.011942
0.986795 0.125786 0.102043
0.957206 -0.028939 -0.287958
0.996514 -0.010666 0.082739
0.985004 -0.155381 -0.074988
0.971397 0.027756 -0.235834
0.942602 -0.282011 -0.178803
0.734779 -0.185834 -0.652354
0.759976 -0.132049 -0.636396
0.785068 -0.088504 -0.613054
0.728327 -0.121666 -0.674341
0.631452 -0.201631 -0.748741
0.545593 -0.246720 -0.800910
0.476002 -0.296519 -0.827949
0.404637 -0.308576 -0.860842
0.469195 -0.879979 -0.074116
0.373771 -0.927413 -0.014152
0.538828 -0.835723 -0.105975
0.565509 -0.805852 -0.175506
0.331059 -0.926976 0.176394
0.591266 -0.776602 -0.217469
0.671031 -0.710133 -0.213137
0.730191 -0.649551 -0.211907
0.887643 -0.210459 -0.409631
0.888914 -0.269381 -0.370495
0.907689 -0.117570 -0.402837
0.856932 -0.383500 -0.344378
0.806840 -0.505280 -0.306107
0.940961 -0.020907 -0.337868
0.786445 -0.550281 -0.280524
0.974448 0.089255 -0.206117
0.837126 -0.335239 -0.432243
0.926117 -0.297753 -0.231627
0.874151 -0.337051 -0.349653
0.912828 -0.322981 -0.249855
0.803858 -0.274744 -0.527568
0.102259 -0.955046 -0.278262
0.140526 -0.824405 -0.548278
0.285541 -0.491452 -0.822764
0.110847 -0.929653 -0.351365
0.099154 -0.867049 -0.488257
0.440817 -0.578073 -0.686667
0.092630 -0.920978 -0.378444
0.156841 -0.987422 0.019960
0.293749 -0.901429 0.318021
0.772387 -0.591147 -0.232301
0.957886 -0.046225 -0.283404
0.969627 -0.065932 -0.235536
0.998576 0.028846 0.044881
0.977415 0.131026 0.165807
0.972694 0.004062 -0.232055
0.998074 -0.054551 0.029528
0.964597 -0.234595 -0.120490
0.978673 0.078744 -0.189734
0.829303 -0.315290 -0.461356
0.954606 -0.268051 -0.129909
0.751979 -0.189857 -0.631255
0.708007 -0.073648 -0.702354
0.798488 -0.060941 -0.598919
0.808339 -0.133255 -0.573438
0.736339 -0.217723 -0.640626
0.604157 -0.292318 -0.741313
0.510478 -0.334688 -0.792083
0.438922 -0.260174 -0.860033
0.617739 -0.453813 -0.642224
0.495845 -0.843654 0.205878
0.552311 -0.822692 0.134649
0.384216 -0.861292 0.332496
0.560999 -0.827572 0.020099
0.581448 -0.809514 -0.081272
0.374518 -0.796859 0.474081
0.664463 -0.736746 -0.125282
0.739739 -0.660006 -0.131070
0.766538 -0.623206 -0.155032
0.871444 -0.278961 -0.403444
0.900872 -0.161252 -0.403023
0.873890 -0.320750 -0.365289
0.942732 -0.011335 -0.333359
0.860206 -0.393503 -0.324348
0.834594 -0.466134 -0.293552
0.964085 0.098152 -0.246792
0.816792 -0.515180 -0.259693
0.972748 0.145346 -0.180656
0.856615 -0.324118 -0.401445
0.905466 -0.341079 -0.252581
0.863215 -0.343087 -0.370339
0.925743 -0.311426 -0.214508
0.831455 -0.225852 -0.507616
0.072737 -0.968191 -0.239405
0.142996 -0.979520 -0.141750
0.583233 -0.774946 -0.243513
0.756251 -0.591840 -0.278944
0.077621 -0.964035 -0.254189
0.067293 -0.997418 0.025091
0.955729 -0.291587 -0.039484
0.089272 -0.892396 0.442334
0.181698 -0.861985 0.473252
0.362229 -0.772909 0.520962
0.799325 -0.564857 -0.204981
0.986668 0.014785 -0.162074
0.981757 -0.044444 -0.184870
0.980866 -0.085034 -0.175133
0.999774 -0.010755 0.018339
0.999996 0.000655 -0.002759
0.979313 0.054005 -0.195013
0.973923 -0.204530 -0.098196
0.943150 -0.285907 -0.169486
0.971955 0.095155 -0.215057
0.858347 -0.295219 -0.419626
0.950265 -0.283363 -0.129235
0.693183 -0.129176 -0.709091
0.819085 -0.198816 -0.538119
0.727673 -0.192434 -0.658378
0.811707 -0.270467 -0.517667
0.813700 -0.290717 -0.503365
0.684262 -0.343431 -0.643304
0.548086 -0.386961 -0.741527
0.409718 -0.351243 -0.841878
0.638827 -0.419886 -0.644667
0.969040 -0.246827 0.006161
0.527970 -0.752546 0.393602
0.590594 -0.751047 0.295173
0.560830 -0.793891 0.234959
0.439194 -0.689652 0.575751
0.583356 -0.804152 0.114175
0.652136 -0.757299 0.034882
0.437998 -0.705663 0.556954
0.746914 -0.663637 -0.041300
0.775287 -0.626498 -0.080191
0.790591 -0.601233 -0.116123
0.883194 -0.276663 -0.378717
0.908485 -0.186456 -0.374017
0.937933 -0.032243 -0.345314
0.870370 -0.346442 -0.349906
0.954409 0.097189 -0.282236
0.864645 -0.391284 -0.315097
0.849134 -0.441750 -0.289531
0.959313 0.156171 -0.235222
0.835956 -0.487691 -0.251665
0.962869 0.153923 -0.221788
0.884661 -0.318847 -0.340164
0.913859 -0.338844 -0.223713
0.890066 -0.284965 -0.355778
0.931397 -0.309682 -0.191304
0.856322 -0.234489 -0.460139
0.181317 -0.982463 0.043478
0.042046 -0.994431 0.096643
0.749289 -0.662118 0.012889
0.994547 -0.034562 0.098391
0.985248 0.016487 0.170337
0.086180 -0.914341 0.395668
0.136965 -0.769847 0.623359
0.978759 -0.119469 0.166604
0.151003 -0.552674 0.819603
0.253341 -0.591701 0.765316
0.395736 -0.697640 0.597237
0.827093 -0.535070 -0.172096
0.993023 0.107635 -0.048177
0.998959 0.025464 -0.037856
0.990532 -0.066889 -0.119885
0.992907 -0.093070 -0.073984
0.999542 0.002917 -0.030132
0.993508 -0.089717 -0.069953
0.981718 0.154228 -0.111549
0.969317 -0.226087 -0.096486
0.956553 -0.266371 -0.118548
0.967337 0.178749 -0.179743
0.903175 -0.276780 -0.328128
0.958305 -0.279498 -0.059434
0.752852 -0.193947 -0.628966
0.721731 -0.311747 -0.617996
0.810548 -0.280055 -0.514374
0.797455 -0.373330 -0.474015
0.805757 -0.344490 -0.481749
0.763428 -0.308042 -0.567705
0.609674 -0.309308 -0.729812
0.452286 -0.258527 -0.853582
0.600304 -0.407728 -0.688035
0.965443 -0.260430 0.009797
0.996757 -0.065335 0.046972
0.985741 -0.092537 0.140542
0.971992 -0.154797 0.176829
0.536285 -0.625733 0.566442
0.577749 -0.754611 0.311075
0.557382 -0.780132 0.284112
0.575111 -0.783630 0.234887
0.525766 -0.588917 0.613797
0.656350 -0.736823 0.162163
0.753212 -0.650296 0.098931
0.494855 -0.704905 0.508161
0.790959 -0.611283 0.026784
0.811642 -0.583541 -0.026795
0.839810 -0.539811 -0.057646
0.899372 -0.256341 -0.354145
0.912400 -0.178425 -0.368361
0.932092 -0.078487 -0.353617
0.944695 0.069420 -0.320520
0.882153 -0.330441 -0.335581
0.947262 0.146293 -0.285119
0.871704 -0.370842 -0.320325
0.860834 -0.419977 -0.287373
0.949187 0.172701 -0.263092
0.857696 -0.461734 -0.226185
0.950858 0.211645 -0.226000
0.910298 -0.341261 -0.234302
0.914502 -0.334850 -0.227071
0.865680 -0.303899 -0.397798
0.939060 -0.304424 -0.159665
0.827867 -0.325926 -0.456518
0.221858 -0.926922 0.302645
0.798832 -0.592540 0.103749
0.106882 -0.782731 0.613114
0.998270 -0.056822 0.015077
0.988759 -0.137153 0.059543
0.990808 -0.088051 0.102693
0.185692 -0.641650 0.744180
0.210225 -0.557160 0.803354
0.940745 -0.317237 -0.119828
0.930560 -0.347403 -0.115623
0.254403 -0.265159 0.930038
0.315042 -0.368578 0.874585
0.378391 -0.597676 0.706827
0.869906 -0.480253 -0.112344
0.995092 0.096347 0.022571
0.984773 0.173620 -0.008850
0.999987 -0.004989 -0.000570
0.994988 -0.099908 -0.004065
0.999609 -0.015254 0.023414
0.996971 0.023493 -0.074147
0.993724 -0.111695 -0.006103
0.970321 0.230559 -0.072935
0.975574 -0.217923 -0.027652
0.962329 -0.269578 -0.035365
0.948617 0.272448 -0.160926
0.916626 -0.312429 -0.249370
0.953992 -0.299815 0.003126
0.734131 -0.313611 -0.602246
0.769029 -0.269787 -0.579491
0.772397 -0.390406 -0.500985
0.809203 -0.307670 -0.500529
0.774431 -0.319402 -0.546113
0.782443 -0.255914 -0.567707
0.692054 -0.198281 -0.694079
0.533330 -0.086842 -0.841438
0.610882 -0.281019 -0.740170
0.956248 -0.291168 -0.028476
0.965988 -0.199045 0.165072
0.982237 -0.181473 0.047735
0.910159 -0.398676 -0.112552
0.934152 -0.312240 -0.172820
0.607523 -0.424645 0.671262
0.570701 -0.740930 0.354009
0.616560 -0.716939 0.325349
0.688009 -0.658718 0.304524
0.653879 -0.557609 0.511385
0.790097 -0.579876 0.198720
0.815218 -0.556570 0.160156
0.573760 -0.609556 0.547029
0.827664 -0.556125 0.075478
0.857813 -0.513959 0.001742
0.883188 -0.466900 -0.044541
0.906450 -0.238752 -0.348349
0.930014 -0.104943 -0.352224
0.937995 0.019083 -0.346123
0.936938 0.120292 -0.328141
0.897039 -0.285809 -0.337098
0.935225 0.162628 -0.314493
0.891536 -0.327229 -0.313186
0.886913 -0.373506 -0.271806
0.933614 0.232095 -0.272941
0.892032 -0.416026 -0.176640
0.999855 -0.004478 0.016405
0.926202 0.308463 -0.216797
0.901977 -0.359781 -0.238736
0.921767 -0.359298 -0.145778
0.872952 -0.329471 -0.359727
0.932256 -0.335343 -0.135804
0.760240 -0.429666 -0.487260
0.848450 -0.351454 -0.395744
0.805564 -0.549073 0.222679
0.283035 -0.624347 0.728067
0.997140 -0.074828 -0.010587
0.233312 -0.427747 0.873269
0.983183 -0.177357 0.043527
0.875235 -0.478451 -0.071057
0.844986 -0.534573 0.015195
0.300075 -0.389085 0.870958
0.799526 -0.341337 -0.494214
0.795758 -0.445566 -0.410171
0.658217 -0.580753 -0.479036
0.346754 -0.124941 0.929597
0.381671 -0.140443 0.913566
0.608453 -0.503461 0.613443
0.488907 -0.348807 0.799565
0.901707 -0.422249 -0.092900
0.995743 0.063553 0.066765
0.986869 0.156026 0.041783
0.973065 0.230508 -0.003161
0.992959 -0.068817 0.096419
0.994852 -0.079344 0.063044
0.994488 0.091924 -0.050435
0.995406 0.095717 0.002330
0.989454 -0.130491 0.062878
0.948677 0.304675 -0.084766
0.965810 -0.259095 -0.009001
0.952482 -0.304451 0.009385
0.918354 0.353674 -0.177597
0.888727 -0.376831 -0.261080
0.940353 -0.336322 0.051219
0.804358 -0.352584 -0.478218
0.807354 -0.258522 -0.530420
0.709484 -0.356334 -0.607996
0.748609 -0.232053 -0.621077
0.803290 -0.310071 -0.508508
0.776864 -0.172510 -0.605576
0.763122 -0.121722 -0.634688
0.620061 0.018507 -0.784335
0.640884 -0.143700 -0.754067
0.946122 -0.307081 -0.102735
0.961137 -0.245815 0.125663
0.918880 -0.297148 -0.259544
0.836805 -0.535890 0.112163
0.689526 -0.662541 -0.292563
0.818820 -0.228711 -0.526522
0.693629 -0.476825 0.539923
0.693066 -0.288315 0.660708
0.692167 -0.587037 0.419872
0.760438 -0.536951 0.365264
0.829073 -0.476691 0.292239
0.673997 -0.533827 0.510643
0.844508 -0.486716 0.223415
0.825426 -0.531510 0.190182
0.869597 -0.487906 0.075820
0.885570 -0.464482 0.004754
0.907748 -0.413409 -0.071316
0.924701 -0.151924 -0.349065
0.934623 0.010069 -0.355497
0.930688 0.095362 -0.353164
0.924766 0.143686 -0.352365
0.919267 -0.209287 -0.333386
0.918927 0.195456 -0.342592
0.916906 -0.251607 -0.309801
0.918888 -0.303334 -0.252257
0.905131 0.312823 -0.287889
0.920068 -0.354305 -0.167164
0.994839 -0.021661 0.099124
0.891929 0.381867 -0.242155
0.920709 -0.358373 -0.154481
0.889153 -0.372631 -0.265618
0.899517 -0.374627 -0.224775
0.927071 -0.373989 -0.025924
0.826369 -0.374876 -0.420216
0.842277 -0.411890 -0.347729
0.992778 -0.117890 -0.022238
0.765314 -0.470668 0.439052
0.342139 -0.201351 0.917823
0.986079 -0.163051 0.032585
0.347290 -0.224256 0.910549
0.849246 -0.490583 0.195218
0.591262 -0.790547 -0.159515
0.534642 -0.840704 0.085877
0.433412 -0.187171 0.881545
0.650446 -0.158909 -0.742744
0.579793 -0.383332 -0.718955
0.399326 -0.757409 -0.516595
0.436743 0.082707 0.895776
0.444379 -0.041130 0.894894
0.750617 -0.362313 0.552543
0.543457 -0.372542 0.752241
0.922370 -0.369956 -0.111200
0.931857 -0.037804 -0.360850
0.979910 0.150047 0.131389
0.987074 0.000739 0.160267
0.963625 0.246947 0.102197
0.942715 0.332484 0.027241
0.987151 -0.106186 0.119406
0.990138 0.103298 0.094635
0.974278 0.224574 -0.018670
0.984320 0.136431 0.111807
0.975750 -0.191914 0.105264
0.905638 0.410174 -0.107602
0.951301 -0.306596 0.032025
0.937354 -0.348378 0.000175
0.871149 0.444808 -0.207954
0.884476 -0.405242 -0.231260
0.926878 -0.372212 0.048520
0.831769 -0.360667 -0.421995
0.773155 -0.350090 -0.528837
0.782714 -0.187236 -0.593550
0.710003 -0.085551 -0.698983
0.787469 -0.067629 -0.612633
0.784656 -0.343429 -0.516112
0.803447 -0.071493 -0.591068
0.701766 0.045808 -0.710933
0.680226 -0.031458 -0.732327
0.936235 -0.299194 -0.184247
0.956443 -0.275996 0.095095
0.909883 -0.258948 -0.324128
0.820784 -0.107920 -0.560952
0.532181 -0.775721 0.339175
0.735978 0.037286 -0.675978
0.411972 -0.502327 -0.760228
0.712330 -0.563094 0.418940
0.732622 -0.449914 0.510728
0.782042 -0.269282 0.562048
0.816671 -0.437276 0.376614
0.856437 -0.413463 0.309135
0.881500 -0.390693 0.265175
0.845967 -0.442599 0.297399
0.873898 -0.456589 0.166822
0.647741 -0.510018 0.565962
0.890358 -0.449216 0.073946
0.900893 -0.433733 -0.016366
0.929621 -0.351393 -0.111034
0.931775 -0.075440 -0.355110
0.926819 0.071804 -0.368579
0.918235 0.125088 -0.375762
0.910572 0.156214 -0.382696
0.930520 -0.126168 -0.343822
0.894151 0.251439 -0.370504
0.932207 -0.178729 -0.314717
0.938207 -0.229270 -0.259234
0.868308 0.374022 -0.325805
0.942690 -0.266461 -0.200834
0.979945 -0.067440 0.187509
0.844508 0.453558 -0.284766
0.905048 -0.389063 -0.171809
0.875241 -0.365484 -0.316819
0.890645 -0.436249 -0.128210
0.909316 -0.401899 0.107803
0.849110 -0.285710 -0.444277
0.859987 -0.401244 -0.315318
0.991131 -0.118990 -0.059167
0.983446 -0.177350 0.037156
0.416552 -0.249048 0.874334
0.336527 -0.088701 0.937487
0.862031 -0.415136 0.290799
0.455008 -0.275738 0.846721
0.588496 -0.653019 0.476695
0.221980 -0.968552 -0.112394
0.224847 -0.878250 0.422043
0.512765 -0.083430 0.854465
0.608980 0.091125 -0.787934
0.504431 -0.131109 -0.853440
0.133405 -0.764510 -0.630657
0.519381 0.260303 0.813932
0.550901 0.031666 0.833969
0.829214 -0.313784 0.462540
0.649572 -0.295632 0.700470
0.948535 -0.274780 -0.157410
0.926267 0.035718 -0.375171
0.980682 0.089054 0.174163
0.968241 0.219498 0.119708
0.987033 -0.075954 0.141409
0.947831 0.306680 0.086971
0.906397 0.421758 -0.023751
0.988329 -0.058649 0.140592
0.968744 0.241696 0.055840
0.960180 0.276884 0.037275
0.971242 0.121279 0.204890
0.953778 -0.270118 0.131697
0.862531 0.475789 -0.172235
0.935287 -0.348978 0.058765
0.920622 -0.389440 0.028149
0.825761 0.497993 -0.264805
0.905257 -0.419789 -0.065475
0.899592 -0.426461 0.094157
0.762501 -0.433881 -0.479936
0.808824 -0.408515 -0.422988
0.859097 -0.101151 -0.501718
0.771536 0.041340 -0.634841
0.773179 -0.031047 -0.633427
0.820695 -0.092013 -0.563909
0.864581 -0.323383 -0.384608
0.754582 -0.018523 -0.655945
0.702643 0.012400 -0.711435
0.921095 -0.270144 -0.280367
0.953114 -0.296886 0.058579
0.921293 -0.196283 -0.335698
0.812071 0.023815 -0.583072
0.782913 0.172344 -0.597783
0.891641 -0.354715 0.281341
0.347271 -0.679991 0.645767
0.724840 0.299334 -0.620488
0.279090 -0.207282 -0.937626
0.772866 -0.493164 0.399333
0.729401 -0.435174 0.527824
0.773126 -0.453560 0.443351
0.803001 -0.344863 0.486064
0.877910 -0.366045 0.308684
0.915815 -0.333475 0.223778
0.897334 -0.323909 0.299791
0.889326 -0.344296 0.300931
0.909651 -0.378579 0.170917
0.906419 -0.410816 0.098161
0.935980 -0.347483 -0.056546
0.954659 -0.244086 -0.170437
0.926917 -0.005354 -0.375229
0.914728 0.102163 -0.390942
0.904089 0.141219 -0.403338
0.891054 0.189961 -0.412236
0.929195 -0.061682 -0.364407
0.864879 0.298239 -0.403779
0.936584 -0.125140 -0.327339
0.946308 -0.147381 -0.287715
0.836018 0.401498 -0.373996
0.953829 -0.156889 -0.256118
0.952270 -0.158886 0.260646
0.806436 0.492596 -0.327124
0.891086 -0.435636 -0.127226
0.898728 -0.426822 -0.100555
0.889592 -0.447801 -0.090007
0.865236 -0.480093 0.144492
0.729524 -0.270383 -0.628242
0.792829 -0.151610 -0.590285
0.894454 -0.369255 -0.252194
0.969504 -0.227475 0.091197
0.987888 -0.114508 -0.104711