# vtk DataFile Version 1.0
Mesh from obj
ASCII
DATASET UNSTRUCTURED_GRID
POINTS 28740 float
0.449922 1.001140 1.092240
0.697380 0.600745 1.245180
1.092240 0.449922 1.001140
1.245180 0.697380 0.600745
1.001140 1.092240 0.449922
0.600745 1.245180 0.697380
-0.600745 1.245180 0.697380
-1.001140 1.092240 0.449922
-1.245180 0.697380 0.600745
-1.092240 0.449922 1.001140
-0.697380 0.600745 1.245180
-0.449922 1.001140 1.092240
-0.127244 1.523240 0.247457
-0.127244 1.523240 -0.247457
-0.522105 1.372420 -0.491495
-0.922499 1.219480 -0.244038
-0.922499 1.219480 0.244038
-0.522105 1.372420 0.491495
0.522105 1.372420 0.491495
0.922499 1.219480 0.244038
0.922499 1.219480 -0.244038
0.522105 1.372420 -0.491495
0.127244 1.523240 -0.247457
0.127244 1.523240 0.247457
0.600745 -1.245180 0.697380
1.001140 -1.092240 0.449922
1.245180 -0.697380 0.600745
1.092240 -0.449922 1.001140
0.697380 -0.600745 1.245180
0.449922 -1.001140 1.092240
0.244038 -0.922499 1.219480
0.491495 -0.522105 1.372420
0.247457 -0.127244 1.523240
-0.247457 -0.127244 1.523240
-0.491495 -0.522105 1.372420
-0.244038 -0.922499 1.219480
-0.449922 -1.001140 1.092240
-0.697380 -0.600745 1.245180
-1.092240 -0.449922 1.001140
-1.245180 -0.697380 0.600745
-1.001140 -1.092240 0.449922
-0.600745 -1.245180 0.697380
-0.522105 -1.372420 0.491495
-0.922499 -1.219480 0.244038
-0.922499 -1.219480 -0.244038
-0.522105 -1.372420 -0.491495
-0.127244 -1.523240 -0.247457
-0.127244 -1.523240 0.247457
0.127244 -1.523240 0.247457
0.127244 -1.523240 -0.247457
0.522105 -1.372420 -0.491495
0.922499 -1.219480 -0.244038
0.922499 -1.219480 0.244038
0.522105 -1.372420 0.491495
0.600745 1.245180 -0.697380
1.001140 1.092240 -0.449922
1.245180 0.697380 -0.600745
1.092240 0.449922 -1.001140
0.697380 0.600745 -1.245180
0.449922 1.001140 -1.092240
0.244038 0.922499 -1.219480
0.491495 0.522105 -1.372420
0.247457 0.127244 -1.523240
-0.247457 0.127244 -1.523240
-0.491495 0.522105 -1.372420
-0.244038 0.922499 -1.219480
-0.449922 1.001140 -1.092240
-0.697380 0.600745 -1.245180
-1.092240 0.449922 -1.001140
-1.245180 0.697380 -0.600745
-1.001140 1.092240 -0.449922
-0.600745 1.245180 -0.697380
1.219480 -0.244038 0.922499
1.372420 -0.491495 0.522105
1.523240 -0.247457 0.127244
1.523240 0.247457 0.127244
1.372420 0.491495 0.522105
1.219480 0.244038 0.922499
-1.219480 0.244038 0.922499
-1.372420 0.491495 0.522105
-1.523240 0.247457 0.127244
-1.523240 -0.247457 0.127244
-1.372420 -0.491495 0.522105
-1.219480 -0.244038 0.922499
1.219480 0.244038 -0.922499
1.372420 0.491495 -0.522105
1.523240 0.247457 -0.127244
1.523240 -0.247457 -0.127244
1.372420 -0.491495 -0.522105
1.219480 -0.244038 -0.922499
0.449922 -1.001140 -1.092240
0.697380 -0.600745 -1.245180
1.092240 -0.449922 -1.001140
1.245180 -0.697380 -0.600745
1.001140 -1.092240 -0.449922
0.600745 -1.245180 -0.697380
-0.600745 -1.245180 -0.697380
-1.001140 -1.092240 -0.449922
-1.245180 -0.697380 -0.600745
-1.092240 -0.449922 -1.001140
-0.697380 -0.600745 -1.245180
-0.449922 -1.001140 -1.092240
-1.219480 -0.244038 -0.922499
-1.372420 -0.491495 -0.522105
-1.523240 -0.247457 -0.127244
-1.523240 0.247457 -0.127244
-1.372420 0.491495 -0.522105
-1.219480 0.244038 -0.922499
-0.244038 0.922499 1.219480
-0.491495 0.522105 1.372420
-0.247457 0.127244 1.523240
0.247457 0.127244 1.523240
0.491495 0.522105 1.372420
0.244038 0.922499 1.219480
-0.247457 -0.127244 -1.523240
0.247457 -0.127244 -1.523240
0.491495 -0.522105 -1.372420
0.244038 -0.922499 -1.219480
-0.244038 -0.922499 -1.219480
-0.491495 -0.522105 -1.372420
1.481940 0.472920 0.000000
1.345060 0.694407 -0.358373
1.123580 1.052780 -0.221487
1.123580 1.052780 0.221487
1.345060 0.694407 0.358373
-0.694407 -0.358373 -1.345060
-1.052780 -0.221487 -1.123580
-1.052780 0.221487 -1.123580
-0.694407 0.358373 -1.345060
-0.472920 0.000000 -1.481940
-0.221487 -1.123580 -1.052780
0.221487 -1.123580 -1.052780
0.358373 -1.345060 -0.694407
0.000000 -1.481940 -0.472920
-0.358373 -1.345060 -0.694407
-1.123580 1.052780 0.221487
-1.123580 1.052780 -0.221487
-1.345060 0.694407 -0.358373
-1.481940 0.472920 0.000000
-1.345060 0.694407 0.358373
1.123580 -1.052780 0.221487
1.123580 -1.052780 -0.221487
1.345060 -0.694407 -0.358373
1.481940 -0.472920 0.000000
1.345060 -0.694407 0.358373
-1.481940 -0.472920 0.000000
-1.345060 -0.694407 -0.358373
-1.123580 -1.052780 -0.221487
-1.123580 -1.052780 0.221487
-1.345060 -0.694407 0.358373
-0.694407 0.358373 1.345060
-1.052780 0.221487 1.123580
-1.052780 -0.221487 1.123580
-0.694407 -0.358373 1.345060
-0.472920 0.000000 1.481940
0.000000 1.481940 0.472920
-0.358373 1.345060 0.694407
-0.221487 1.123580 1.052780
0.221487 1.123580 1.052780
0.358373 1.345060 0.694407
0.694407 0.358373 1.345060
0.472920 0.000000 1.481940
0.694407 -0.358373 1.345060
1.052780 -0.221487 1.123580
1.052780 0.221487 1.123580
1.052780 -0.221487 -1.123580
0.694407 -0.358373 -1.345060
0.472920 0.000000 -1.481940
0.694407 0.358373 -1.345060
1.052780 0.221487 -1.123580
0.221487 -1.123580 1.052780
-0.221487 -1.123580 1.052780
-0.358373 -1.345060 0.694407
0.000000 -1.481940 0.472920
0.358373 -1.345060 0.694407
0.000000 1.481940 -0.472920
0.358373 1.345060 -0.694407
0.221487 1.123580 -1.052780
-0.221487 1.123580 -1.052780
-0.358373 1.345060 -0.694407
0.400565 0.882427 0.953336
0.619583 0.528049 1.088700
0.953336 0.400565 0.882427
1.088700 0.619583 0.528049
0.882427 0.953336 0.400565
0.528049 1.088700 0.619583
-0.528049 1.088700 0.619583
-0.882427 0.953336 0.400565
-1.088700 0.619583 0.528049
-0.953336 0.400565 0.882427
-0.619583 0.528049 1.088700
-0.400565 0.882427 0.953336
-0.120081 1.336260 0.219016
-0.120081 1.336260 -0.219016
-0.453835 1.208770 -0.425288
-0.808212 1.073420 -0.206272
-0.808212 1.073420 0.206272
-0.453835 1.208770 0.425288
0.453835 1.208770 0.425288
0.808212 1.073420 0.206272
0.808212 1.073420 -0.206272
0.453835 1.208770 -0.425288
0.120081 1.336260 -0.219016
0.120081 1.336260 0.219016
0.528049 -1.088700 0.619583
0.882427 -0.953336 0.400565
1.088700 -0.619583 0.528049
0.953336 -0.400565 0.882427
0.619583 -0.528049 1.088700
0.400565 -0.882427 0.953336
0.206272 -0.808212 1.073420
0.425288 -0.453835 1.208770
0.219016 -0.120081 1.336260
-0.219016 -0.120081 1.336260
-0.425288 -0.453835 1.208770
-0.206272 -0.808212 1.073420
-0.400565 -0.882427 0.953336
-0.619583 -0.528049 1.088700
-0.953336 -0.400565 0.882427
-1.088700 -0.619583 0.528049
-0.882427 -0.953336 0.400565
-0.528049 -1.088700 0.619583
-0.453835 -1.208770 0.425288
-0.808212 -1.073420 0.206272
-0.808212 -1.073420 -0.206272
-0.453835 -1.208770 -0.425288
-0.120081 -1.336260 -0.219016
-0.120081 -1.336260 0.219016
0.120081 -1.336260 0.219016
0.120081 -1.336260 -0.219016
0.453835 -1.208770 -0.425288
0.808212 -1.073420 -0.206272
0.808212 -1.073420 0.206272
0.453835 -1.208770 0.425288
0.528049 1.088700 -0.619583
0.882427 0.953336 -0.400565
1.088700 0.619583 -0.528049
0.953336 0.400565 -0.882427
0.619583 0.528049 -1.088700
0.400565 0.882427 -0.953336
0.206272 0.808212 -1.073420
0.425288 0.453835 -1.208770
0.219016 0.120081 -1.336260
-0.219016 0.120081 -1.336260
-0.425288 0.453835 -1.208770
-0.206272 0.808212 -1.073420
-0.400565 0.882427 -0.953336
-0.619583 0.528049 -1.088700
-0.953336 0.400565 -0.882427
-1.088700 0.619583 -0.528049
-0.882427 0.953336 -0.400565
-0.528049 1.088700 -0.619583
1.073420 -0.206272 0.808212
1.208770 -0.425288 0.453835
1.336260 -0.219016 0.120081
1.336260 0.219016 0.120081
1.208770 0.425288 0.453835
1.073420 0.206272 0.808212
-1.073420 0.206272 0.808212
-1.208770 0.425288 0.453835
-1.336260 0.219016 0.120081
-1.336260 -0.219016 0.120081
-1.208770 -0.425288 0.453835
-1.073420 -0.206272 0.808212
1.073420 0.206272 -0.808212
1.208770 0.425288 -0.453835
1.336260 0.219016 -0.120081
1.336260 -0.219016 -0.120081
1.208770 -0.425288 -0.453835
1.073420 -0.206272 -0.808212
0.400565 -0.882427 -0.953336
0.619583 -0.528049 -1.088700
0.953336 -0.400565 -0.882427
1.088700 -0.619583 -0.528049
0.882427 -0.953336 -0.400565
0.528049 -1.088700 -0.619583
-0.528049 -1.088700 -0.619583
-0.882427 -0.953336 -0.400565
-1.088700 -0.619583 -0.528049
-0.953336 -0.400565 -0.882427
-0.619583 -0.528049 -1.088700
-0.400565 -0.882427 -0.953336
-1.073420 -0.206272 -0.808212
-1.208770 -0.425288 -0.453835
-1.336260 -0.219016 -0.120081
-1.336260 0.219016 -0.120081
-1.208770 0.425288 -0.453835
-1.073420 0.206272 -0.808212
-0.206272 0.808212 1.073420
-0.425288 0.453835 1.208770
-0.219016 0.120081 1.336260
0.219016 0.120081 1.336260
0.425288 0.453835 1.208770
0.206272 0.808212 1.073420
-0.219016 -0.120081 -1.336260
0.219016 -0.120081 -1.336260
0.425288 -0.453835 -1.208770
0.206272 -0.808212 -1.073420
-0.206272 -0.808212 -1.073420
-0.425288 -0.453835 -1.208770
1.297690 0.433925 0.000000
1.183950 0.617974 -0.297796
0.999906 0.915770 -0.184048
0.999906 0.915770 0.184048
1.183950 0.617974 0.297796
-0.617974 -0.297796 -1.183950
-0.915770 -0.184048 -0.999906
-0.915770 0.184048 -0.999906
-0.617974 0.297796 -1.183950
-0.433925 0.000000 -1.297690
-0.184048 -0.999906 -0.915770
0.184048 -0.999906 -0.915770
0.297796 -1.183950 -0.617974
0.000000 -1.297690 -0.433925
-0.297796 -1.183950 -0.617974
-0.999906 0.915770 0.184048
-0.999906 0.915770 -0.184048
-1.183950 0.617974 -0.297796
-1.297690 0.433925 -0.000000
-1.183950 0.617974 0.297796
0.999906 -0.915770 0.184048
0.999906 -0.915770 -0.184048
1.183950 -0.617974 -0.297796
1.297690 -0.433925 -0.000000
1.183950 -0.617974 0.297796
-1.297690 -0.433925 0.000000
-1.183950 -0.617974 -0.297796
-0.999906 -0.915770 -0.184048
-0.999906 -0.915770 0.184048
-1.183950 -0.617974 0.297796
-0.617974 0.297796 1.183950
-0.915770 0.184048 0.999906
-0.915770 -0.184048 0.999906
-0.617974 -0.297796 1.183950
-0.433925 -0.000000 1.297690
0.000000 1.297690 0.433925
-0.297796 1.183950 0.617974
-0.184048 0.999906 0.915770
0.184048 0.999906 0.915770
0.297796 1.183950 0.617974
0.617974 0.297796 1.183950
0.433925 0.000000 1.297690
0.617974 -0.297796 1.183950
0.915770 -0.184048 0.999906
0.915770 0.184048 0.999906
0.915770 -0.184048 -0.999906
0.617974 -0.297796 -1.183950
[...]
POINT_DATA 28740

VECTORS fields float
0.648043 -0.563116 -0.512777
0.644582 -0.723632 0.246719
0.767025 -0.593222 0.244459
0.886495 -0.461374 -0.035506
0.861859 -0.398147 -0.314130
0.724680 -0.411034 -0.553073
-0.479680 -0.877088 -0.024967
-0.391902 -0.882750 0.259163
-0.621895 -0.709528 0.331386
-0.800144 -0.571989 0.180551
-0.745939 -0.664361 -0.046895
-0.648043 -0.563116 -0.512777
0.483803 0.186948 -0.854977
0.565856 0.477097 -0.672448
0.828110 0.421801 -0.369212
0.635022 0.184721 -0.750084
0.306073 -0.073599 -0.949159
0.390748 -0.102155 -0.914812
0.907074 -0.392362 -0.152540
0.989635 -0.143501 -0.005418
0.988613 -0.146791 0.033126
0.937130 -0.339876 -0.079193
0.820668 -0.497910 -0.280340
0.757856 -0.553243 -0.345797
-0.697250 -0.074863 0.712908
-0.395818 0.667047 0.631171
0.473098 0.756235 0.451980
0.322517 0.629504 0.706900
-0.072733 0.406900 0.910573
-0.457808 0.078718 0.885560
0.799135 -0.601023 0.012415
0.816242 0.426016 0.390205
0.494863 0.688311 0.530414
-0.797586 0.439529 0.413123
-0.935570 -0.327404 0.132350
-0.721875 -0.691947 -0.010294
0.588656 -0.229951 0.774988
0.414820 0.088437 0.905596
-0.249596 -0.409172 -0.877656
-0.018310 -0.729805 -0.683410
0.408415 -0.878869 -0.246550
0.679211 -0.626478 0.382358
0.034330 -0.278689 0.959768
-0.101877 -0.108003 0.988917
0.173328 0.096598 0.980115
0.704476 -0.076832 0.705557
0.562538 -0.249172 0.788330
0.265851 -0.316065 0.910728
-0.135096 -0.237738 0.961889
-0.316015 -0.062114 0.946719
0.077292 0.293367 0.952870
0.440620 0.172894 0.880887
0.351567 -0.065139 0.933894
0.127298 -0.218434 0.967513
0.607229 -0.760933 0.228592
0.828525 -0.511277 0.228347
0.923515 -0.349450 0.158127
0.897888 -0.403159 0.176807
0.763680 -0.628644 0.146967
0.577403 -0.807415 0.121190
0.691549 -0.697832 -0.186523
0.671164 -0.610069 -0.421135
0.687438 -0.552908 -0.470874
0.651900 -0.675429 -0.344706
0.531244 -0.829318 -0.173235
0.581081 -0.812591 -0.045176
-0.044234 -0.710153 -0.702657
-0.264629 -0.626171 -0.733404
-0.154275 -0.587948 -0.794050
0.012318 -0.731437 -0.681798
0.199524 -0.790836 -0.578593
0.220152 -0.728226 -0.649015
-0.118357 -0.181617 0.976221
-0.138417 -0.599696 0.788166
-0.072390 -0.941103 0.330280
0.313139 -0.702253 -0.639362
0.072603 0.890230 0.449688
-0.103416 0.277512 0.955140
0.104842 -0.986965 -0.122099
0.121412 -0.928575 -0.350725
0.019981 -0.979740 -0.199272
-0.114281 -0.991690 0.059085
-0.175942 -0.957165 0.229956
-0.086081 -0.967988 0.235774
0.023956 -0.669981 0.741992
0.271383 -0.296765 0.915577
0.508842 -0.237966 0.827316
0.553298 -0.345247 0.758067
0.428968 -0.530918 0.730830
0.185817 -0.720692 0.667888
0.119733 -0.557652 0.821394
0.194175 -0.305940 0.932039
0.505747 -0.232858 0.830661
0.589037 -0.417326 0.692007
0.530705 -0.547109 0.647321
0.347185 -0.604598 0.716885
0.038276 -0.887610 0.459003
0.007080 -0.869588 0.493728
0.155258 -0.764763 0.625327
0.473121 -0.647144 0.597797
0.517727 -0.719249 0.463291
0.266175 -0.845164 0.463518
-0.137360 -0.984946 0.104948
-0.304485 -0.946028 0.110994
-0.199234 -0.977220 0.073119
0.127623 -0.991067 0.038709
0.292997 -0.953073 -0.076190
0.126876 -0.991561 -0.026617
0.882993 -0.467495 -0.042092
-0.053504 -0.926500 0.372471
-0.283377 -0.779873 0.558118
0.740160 -0.503089 0.446166
0.967790 0.059916 0.244524
0.992506 0.008827 0.121877
0.428411 -0.722473 0.542675
0.574516 -0.721276 0.386901
0.490243 -0.850045 0.192576
0.401520 -0.912187 0.081830
0.353331 -0.918710 0.176434
0.292373 -0.862187 0.413705
0.653886 -0.623779 0.428173
0.556587 -0.817847 0.146076
0.341228 -0.939796 -0.018627
0.365811 -0.827447 0.426044
0.593880 -0.570567 0.567238
-0.043054 -0.963468 -0.264340
0.085014 -0.978714 -0.186794
0.274064 -0.960161 0.054592
0.379816 -0.925049 0.004873
0.127340 -0.982836 -0.133486
0.219912 -0.299105 0.928534
0.484163 -0.363699 0.795808
0.342160 -0.622656 0.703723
0.191631 -0.710158 0.677461
0.078593 -0.574843 0.814480
-0.208278 -0.817056 -0.537624
-0.365909 -0.869407 -0.332027
-0.606296 -0.791271 -0.079341
-0.700571 -0.668315 -0.250110
-0.431502 -0.777709 -0.457137
0.076593 -0.218548 0.972816
-0.250350 -0.285347 0.925150
-0.138864 0.215016 0.966688
0.292750 0.279271 0.914497
0.291710 -0.002928 0.956502
0.671104 -0.640204 0.373843
0.616848 -0.769336 0.166195
0.365927 -0.830216 0.420523
0.180818 -0.772365 0.608898
0.294185 -0.680412 0.671189
-0.136084 -0.914491 -0.381036
-0.366675 -0.889125 -0.273872
-0.397599 -0.917553 0.003329
-0.123688 -0.970451 0.207186
0.300962 -0.899938 0.315488
0.999848 -0.012631 0.012049
0.957788 -0.094623 -0.271455
0.906126 0.007615 -0.422939
0.972337 0.199125 -0.122104
0.966635 0.246970 0.067996
0.531243 0.836610 -0.133661
-0.660262 0.291567 0.692129
-0.493282 -0.660741 0.565769
0.880171 -0.401817 -0.252668
0.884635 0.389573 -0.256229
0.798922 -0.568306 0.196854
0.686609 -0.661457 0.301732
0.448565 -0.760058 0.470215
0.527740 -0.621453 0.579040
0.743901 -0.564422 0.357825
0.158420 0.311899 0.936815
-0.352834 0.266516 0.896927
-0.729963 0.244989 0.638070
0.152630 0.715090 0.682166
0.535875 0.387154 0.750300
0.750784 -0.477951 -0.455945
0.804746 -0.170851 -0.568502
0.890303 -0.021628 -0.454855
0.860621 -0.288410 -0.419704
0.700118 -0.549981 -0.455364
0.957676 -0.016080 0.287398
0.989256 -0.050264 -0.137282
0.506628 0.783232 -0.360382
0.072650 -0.631485 0.771977
0.797260 -0.556360 0.234177
0.999796 -0.020179 -0.000484
0.805347 0.098042 -0.584640
-0.305979 -0.475931 -0.824540
-0.139123 -0.959873 -0.243491
0.063829 -0.960515 -0.270808
0.008067 -0.999739 0.021373
0.854032 -0.499443 0.145551
0.921849 -0.307689 -0.235629
0.790527 -0.498398 -0.355902
0.500682 -0.578797 -0.643670
-0.072741 -0.776864 -0.625452
-0.474599 -0.868476 -0.143195
0.753016 -0.360785 0.550274
0.951144 -0.299167 -0.076312
0.518318 -0.797849 -0.307869
0.522460 -0.787341 0.327307
0.851575 -0.508195 -0.128680
0.727665 0.033060 -0.685136
0.921266 0.385812 0.049164
0.279131 0.138494 0.950213
0.226894 -0.100529 0.968717
-0.049266 -0.210987 0.976247
-0.283261 -0.724759 0.628083
0.815613 -0.564831 -0.125462
0.754451 0.394185 0.524807
-0.235925 0.320563 0.917376
-0.622848 0.050500 0.780711
-0.023325 -0.910997 0.411752
0.189812 -0.866318 0.462022
0.617815 -0.602512 0.505256
0.327811 0.271767 0.904811
-0.971313 -0.063298 0.229228
-0.274141 -0.959953 -0.057765
-0.070392 -0.962214 0.263040
0.132304 -0.880402 0.455399
0.230301 -0.430557 0.872687
-0.183611 0.139748 0.973015
0.902640 -0.427968 -0.045658
0.540400 -0.722932 0.430508
0.109009 -0.807972 0.579050
0.119194 -0.787258 0.604994
-0.010128 -0.391282 0.920215
-0.472089 0.156390 0.867568
0.615912 0.058494 0.785640
0.307863 -0.480917 0.820938
0.360381 -0.658011 0.661171
0.213355 -0.421824 0.881217
-0.486102 -0.186378 0.853796
-0.084164 0.756515 0.648538
0.993064 -0.035768 -0.112001
0.779208 -0.624550 0.052647
0.134171 -0.899489 0.415835
0.426286 -0.524068 0.737315
0.751230 -0.653627 0.091787
0.763744 -0.383589 -0.519186
0.877372 -0.465050 -0.118094
0.524921 -0.791047 0.314170
0.500672 -0.694407 0.516843
0.487631 -0.855814 0.172623
0.032782 -0.909240 -0.414980
0.518292 -0.153066 -0.841394
0.636919 -0.685266 -0.353192
0.421059 -0.903745 -0.077166
0.294669 -0.955238 -0.026271
-0.133405 -0.977721 -0.162064
-0.799191 -0.582349 -0.148874
0.835760 -0.059390 -0.545874
0.768695 0.636427 -0.063782
0.264799 0.496494 0.826665
0.355938 -0.125279 0.926074
0.513391 -0.462801 0.722665
0.657864 -0.661153 0.360683
0.791400 -0.604751 -0.089230
-0.358446 -0.899053 0.251437
-0.761507 -0.645174 0.062107
-0.324770 -0.933319 -0.153104
0.229534 -0.909592 0.346347
0.789834 -0.582513 0.191942
-0.059417 -0.893534 -0.445047
0.866342 -0.461335 0.191369
0.777078 -0.514280 0.362858
0.280542 -0.927343 0.247652
-0.401885 0.005060 0.915676
0.377869 -0.003253 0.925853
0.663339 -0.508626 0.548891
0.423662 -0.768503 0.479493
0.656775 -0.746466 0.106935
0.591734 -0.602595 0.535472
-0.060378 -0.552315 0.831446
-0.040669 0.246088 0.968394
0.475357 -0.112363 0.872588
0.240138 -0.139172 0.960711
0.765481 -0.473752 0.435429
0.125812 -0.944078 0.304775
-0.229529 -0.971268 -0.062896
0.231373 -0.972783 -0.012647
0.203683 -0.741958 0.638758
0.229664 -0.918774 0.321107
0.562917 -0.638724 0.524554
0.373081 -0.927036 -0.037623
-0.343050 -0.932723 0.111105
-0.579829 -0.643978 -0.499089
0.031652 -0.899885 -0.434976
0.898380 0.249797 0.361269
-0.007747 -0.927734 0.373162
0.876220 -0.451218 0.169235
0.457815 0.868356 0.190691
0.379357 -0.921541 -0.082762
0.906086 -0.423094 0.000178
0.277448 -0.830475 -0.483046
0.719032 -0.694963 -0.004383
0.303987 -0.690986 0.655843
0.229512 -0.323789 0.917870
0.522992 -0.549906 0.651216
0.180680 -0.967215 0.178465
-0.030686 -0.114369 0.992964
0.674767 -0.470622 0.568511
0.961208 -0.262095 0.085942
0.927826 -0.353451 0.119207
0.611461 -0.641932 -0.462642
0.418693 -0.694527 0.585089
0.378379 -0.899877 0.216912
-0.392592 -0.902635 -0.176411
0.410348 -0.597519 -0.688902
0.427221 -0.896852 0.114625
0.146883 -0.961579 0.231930
0.419097 -0.784526 0.457030
-0.106036 -0.330527 0.937821
0.436759 0.233115 0.868849
0.445512 -0.599975 0.664492
-0.488689 -0.507580 0.709610
0.111818 -0.413549 -0.903589
0.055810 -0.955555 -0.289483
0.256738 -0.956894 -0.135790
-0.229629 -0.973267 0.004773
0.435065 0.507530 0.743729
0.461107 -0.273284 0.844213
0.580193 -0.429299 0.692155
0.156799 -0.584408 0.796166
-0.569313 -0.717373 0.401571
-0.251267 -0.936505 0.244589
-0.055714 -0.955587 0.289394
0.137024 -0.475311 0.869082
0.876031 -0.038934 0.480680
0.216977 -0.976006 -0.018252
-0.296339 -0.714265 0.634042
-0.393839 -0.902802 0.172743
0.498072 -0.817125 0.290226
-0.970075 -0.009172 -0.242632
-0.485739 -0.864334 0.130325
0.871182 -0.127226 -0.474188
-0.049020 0.187790 -0.980985
0.666319 -0.548575 0.505058
0.875026 -0.363668 -0.319493
0.717535 -0.645792 -0.260952
0.810834 -0.502140 0.300671
0.961795 -0.091433 0.258053
0.475637 0.680441 0.557467
-0.095900 0.391119 0.915330
0.096229 -0.665808 0.739891
0.072534 -0.428698 0.900532
0.575760 -0.508186 0.640506
0.556288 -0.817476 -0.149254
0.917251 -0.370833 -0.145372
0.507144 -0.752818 0.419607
-0.864080 -0.403007 0.301580
0.753192 -0.634637 0.173028
0.448431 -0.235236 0.862307
0.073822 -0.258431 0.963205
-0.297263 -0.064196 0.952635
0.998888 0.012219 -0.045541
0.700145 -0.709884 -0.076558
0.656240 -0.749347 0.088476
0.490089 -0.730722 -0.475246
-0.073852 -0.301797 -0.950507
0.582320 -0.256900 0.771301
0.950803 -0.182721 -0.250172
0.298935 -0.854539 -0.424736
-0.440258 0.069775 -0.895156
0.007732 -0.862831 -0.505434
0.910930 -0.085439 -0.403618
0.169799 -0.861760 0.478057
-0.080426 0.311829 0.946728
0.399888 -0.316432 0.860210
-0.267661 -0.576864 0.771742
-0.062579 -0.863731 0.500052
0.005615 -0.626590 0.779329
0.829996 -0.273936 0.485866
0.418039 -0.901059 -0.115480
-0.107685 -0.918566 0.380316
0.656462 -0.110247 0.746260
0.638906 -0.582020 0.503042
0.828004 0.548142 0.118108
-0.424592 -0.894868 0.137600
-0.380933 -0.840629 -0.385011
-0.497954 -0.558426 0.663477
0.024757 -0.824469 -0.565365
0.896015 0.003979 0.444006
0.885246 -0.149532 0.440432
0.834433 -0.295366 -0.465275
0.953198 -0.195081 -0.230991
0.592814 -0.701938 -0.394785
0.407070 -0.482002 0.775866
-0.588876 -0.522280 -0.616805
-0.846127 -0.288539 -0.448123
0.668182 -0.508015 -0.543557
0.351453 0.291536 0.889656
0.979295 0.154360 0.130972
-0.032151 -0.644890 0.763599
0.669821 -0.657356 -0.345288
0.792209 -0.420997 -0.441778
0.384520 -0.921610 -0.052727
0.614758 -0.788590 -0.014111
0.865982 -0.471355 -0.167034
0.950167 -0.197672 -0.241056
-0.655507 -0.698213 -0.287765
-0.421186 -0.898097 -0.126590
-0.473935 -0.880499 -0.010333
-0.005897 -0.851670 0.524045
0.711680 -0.064194 -0.699565
0.854611 0.486160 -0.182451
0.976744 0.168388 0.132731
0.899726 0.000000 -0.436455
0.934987 -0.263638 -0.237264
0.082542 -0.310606 -0.946948
-0.671870 -0.407611 -0.618420
-0.478065 -0.395713 -0.784133
0.848989 -0.528323 -0.009646
0.827398 0.304422 -0.471952
0.561778 0.522783 -0.641173
0.769144 -0.636649 0.055642
0.761058 -0.646396 -0.054430
0.869557 -0.091658 -0.485252
0.906226 -0.275548 -0.320669
0.955717 -0.110405 -0.272794
0.919354 0.073023 -0.386595
-0.144303 0.305469 0.941204
-0.353123 0.424474 0.833742
-0.291406 0.760003 0.580929
-0.259367 0.809182 0.527212
-0.389712 0.642946 0.659351
-0.229401 0.535214 0.812971
-0.309583 0.857218 0.411504
0.131432 0.978859 0.156718
-0.220340 0.866035 0.448813
0.595849 -0.803096 0.000000
0.917994 -0.161743 -0.362113
-0.443592 -0.844700 -0.299513
-0.405501 -0.910880 -0.076594
-0.283274 0.682054 0.674209
-0.237937 0.748213 0.619324
0.656589 -0.650033 0.382555
0.086223 -0.945098 -0.315207
-0.214579 -0.868379 -0.447072
0.327148 -0.943451 -0.053612
-0.367914 -0.922088 -0.119967
0.532992 -0.006265 0.846097
-0.030842 0.758514 0.650926
0.297126 0.505568 0.810011
0.328196 -0.507137 0.796931
0.495876 -0.410455 0.765267
0.618324 -0.334526 0.711173
0.262728 -0.320837 0.909966
0.308624 0.296729 0.903716
0.137090 0.000000 0.990559
0.215999 -0.228981 0.949164
0.157295 0.250327 0.955298
0.067824 0.185177 0.980362
0.192516 -0.242020 0.950980
0.189948 -0.182226 0.964735
-0.044035 0.238972 0.970028
0.077428 0.064090 0.994936
0.567475 -0.632032 0.527738
-0.036884 0.275901 0.960478
-0.117244 0.379742 0.917633
0.656778 -0.681190 0.323455
0.765994 -0.630713 0.124318
0.716333 -0.630706 0.298458
0.796630 -0.600740 -0.067021
0.885564 -0.432717 -0.168919
0.854757 -0.486007 -0.182177
0.533780 -0.845624 0.000000
0.709302 -0.701511 0.069096
0.760523 -0.642055 0.096799
0.364468 -0.886673 -0.284560
0.814341 -0.532646 -0.230515
0.402501 -0.702010 -0.587516
-0.145410 -0.929459 -0.339060
0.725212 -0.530397 -0.439029
0.553673 -0.543458 -0.630952
0.074715 -0.903234 -0.422594
0.276252 -0.841180 -0.464867
-0.281199 -0.481810 -0.829932
-0.316012 -0.727628 -0.608847
0.378925 -0.917697 0.119361
0.487055 -0.402053 -0.775327
0.445998 -0.224453 -0.866433
-0.193697 0.007518 0.981033
-0.244264 0.274645 0.930003
0.000000 -0.410384 0.911913
0.462432 -0.875835 0.138096
0.148477 -0.847977 0.508813
0.121992 -0.645847 0.753658
-0.586545 0.392216 0.708612
0.531586 -0.767129 -0.359068
-0.310345 -0.934600 -0.173809
-0.476091 -0.857946 -0.193042
0.000000 -0.999943 0.010679
-0.257347 -0.885774 -0.386235
0.308538 -0.937603 0.160327
0.610241 -0.614875 0.499534
-0.129626 -0.979118 -0.156603
0.101453 -0.973827 -0.203391
0.330788 -0.675107 0.659402
0.522188 -0.676999 0.518645
0.124195 -0.232136 0.964722
-0.036448 -0.192964 0.980529
0.362717 -0.406868 0.838388
0.177765 -0.124413 0.976177
0.521175 -0.576136 0.629638
0.473066 -0.516612 0.713667
0.456464 -0.668350 0.587323
0.285400 -0.495551 0.820351
0.514816 -0.579546 0.631737
0.533185 -0.670400 0.516020
0.228902 -0.201744 0.952315
0.246021 -0.271310 0.930518
0.308963 -0.500023 0.809023
0.237602 -0.329765 0.913674
0.338118 -0.741150 0.579977
0.389052 -0.549694 0.739239
0.179684 -0.939977 0.290097
0.183390 -0.970897 0.154037
0.213571 -0.951924 0.219610
0.140243 -0.977124 0.159877
0.293433 -0.859289 0.418951
0.412780 -0.907487 -0.077969
0.281947 -0.655205 0.700865
0.298509 -0.760734 0.576347
0.218605 -0.933560 0.284036
0.253212 -0.883549 0.393986
-0.233232 -0.945287 -0.228113
-0.184031 -0.974294 -0.129940
0.043459 -0.997675 -0.052504
-0.032155 -0.959901 -0.278487
-0.324859 -0.941261 0.092163
-0.460067 -0.877257 0.136961
0.957863 0.020151 -0.286519
0.790057 0.594592 -0.149231
0.997827 0.050754 -0.042011
0.975314 -0.087345 -0.202813
0.588298 -0.741915 0.321664
0.622256 -0.773940 0.117536
0.339848 -0.724487 0.599685
0.376200 -0.643163 0.666944
0.330767 -0.939406 0.090051
0.271181 -0.930538 0.246089
0.906115 -0.413202 -0.090664
-0.637323 -0.102192 -0.763790
-0.080307 0.311896 0.946716
0.673102 -0.700857 -0.236079
0.332330 -0.942118 0.044400
0.595211 -0.801358 0.059572
0.859955 -0.506001 -0.066635
0.946204 -0.308707 -0.096939
-0.636236 -0.762881 -0.114964
-0.345606 -0.938157 0.020470
-0.268492 -0.946986 0.176433
0.270141 -0.769497 0.578704
0.753293 -0.041890 -0.656350
0.914394 0.061477 0.400129
0.840971 -0.265273 0.471591
0.939808 0.000000 -0.341704
0.937370 -0.329977 -0.111593
0.082740 -0.310489 -0.946969
-0.745592 -0.522267 -0.413919
-0.544006 -0.449061 -0.708803
0.853679 -0.520467 0.018595
0.925755 0.264767 -0.269956
0.878197 0.442042 -0.182668
0.766889 -0.633046 0.105517
0.753425 -0.656920 0.028404
0.906345 -0.075945 -0.415658
0.923670 -0.266057 -0.275768
0.976922 -0.151482 -0.150587
0.966506 0.046128 -0.252465
-0.183861 0.259460 0.948090
-0.435532 0.256072 0.862983
-0.244376 0.780373 0.575586
-0.337948 0.751913 0.566055
-0.539712 0.376118 0.753157
-0.199249 0.547418 0.812794
0.827001 -0.561339 -0.031096
0.871837 0.461659 -0.163617
-0.128443 0.896347 0.424341
0.546285 -0.837600 0.000000
0.840704 -0.510256 -0.181263
0.073299 -0.981807 -0.175164
0.136786 -0.990285 0.024992
-0.220419 0.706745 0.672255
0.019431 0.771049 0.636479
0.657400 -0.656881 0.369231
0.301478 -0.941786 -0.148830
0.292913 -0.925232 -0.241140
0.378638 -0.924621 0.041345
-0.238838 -0.969856 0.048340
0.630609 -0.095598 0.770191
0.585563 0.522827 0.619490
0.571858 0.343816 0.744828
0.365210 -0.520447 0.771853
0.533614 -0.440483 0.721963
0.662329 -0.384289 0.643150
0.308584 -0.324480 0.894141
0.483706 0.197592 0.852635
0.194172 0.000000 0.980967
0.213204 -0.230776 0.949361
0.269709 0.221266 0.937176
0.143725 0.177869 0.973502
0.215627 -0.235200 0.947727
0.238249 -0.174559 0.955388
-0.058036 0.230892 0.971247
0.066459 0.054860 0.996280
0.564151 -0.646812 0.513194
0.012939 0.284207 0.958676
-0.098959 0.384400 0.917847
0.657359 -0.678390 0.328126
0.770358 -0.618616 0.154475
0.711952 -0.639014 0.291179
0.796823 -0.600506 -0.066824
0.892991 -0.427985 -0.139272
0.860707 -0.480030 -0.169575
0.533878 -0.845562 0.000000
0.706370 -0.704729 0.066313
0.760111 -0.643573 0.089698
0.365165 -0.886299 -0.284831
0.816520 -0.532701 -0.222543
0.404874 -0.700595 -0.587574
-0.158661 -0.933917 -0.320352
0.731578 -0.525768 -0.434007
0.561286 -0.539957 -0.627219
0.068896 -0.904852 -0.420115
0.273922 -0.839841 -0.468650
-0.318092 -0.505766 -0.801884
-0.343246 -0.744496 -0.572632
0.361355 -0.919115 0.157006
0.501618 -0.392474 -0.770937
0.471624 -0.204844 -0.857677
-0.226240 -0.110108 0.967828
-0.308785 0.157893 0.937935
0.000000 -0.495596 0.868553
0.473483 -0.861356 0.184064
0.160586 -0.867614 0.470594
0.127421 -0.697392 0.705272
-0.473436 -0.668519 0.573534
0.344235 -0.934956 -0.085792
-0.296040 -0.951619 -0.082351
-0.436511 -0.898233 -0.051337
0.000000 -0.998141 0.060950
-0.271299 -0.895891 -0.351819
0.313327 -0.927464 0.204052
0.601617 -0.634106 0.485764
-0.014187 -0.999752 -0.017186
0.230324 -0.971340 -0.058726
0.332269 -0.699970 0.632170
0.523295 -0.685154 0.506682
0.105359 -0.290053 0.951193
-0.053861 -0.294791 0.954042
0.346186 -0.436968 0.830189
0.170806 -0.135167 0.975989
0.509529 -0.599477 0.617258
0.453405 -0.541039 0.708308
0.454614 -0.669555 0.587386
0.328557 -0.503496 0.799088
0.503191 -0.592458 0.629120
0.526922 -0.673745 0.518094
0.211491 -0.225271 0.951065
0.230740 -0.312174 0.921578
0.312288 -0.498441 0.808723
0.240275 -0.325347 0.914558
0.351405 -0.749189 0.561454
0.418413 -0.565731 0.710548
0.183140 -0.940859 0.285032
0.176339 -0.965129 0.193470
0.224363 -0.951118 0.212215
0.147978 -0.976589 0.156129
0.308818 -0.857311 0.411884
0.415555 -0.906394 -0.075926
0.308671 -0.656854 0.687943
0.316689 -0.762157 0.564646
0.214309 -0.931023 0.295411
0.251544 -0.886124 0.389244
-0.243395 -0.952697 -0.182007
-0.179338 -0.981541 -0.066444
0.041030 -0.997921 -0.049704
-0.044657 -0.961524 -0.271068
0.044100 -0.976988 0.208685
-0.094689 -0.936562 0.337470
0.863428 -0.479213 -0.157630
0.868491 -0.469621 -0.158682
0.965814 -0.199921 0.165029
0.957542 -0.286724 -0.030025
0.584915 -0.744852 0.321046
0.620933 -0.775610 0.113451
0.351697 -0.721926 0.595930
0.379361 -0.644081 0.664263
0.337736 -0.937069 0.088522
0.286843 -0.926284 0.244376
0.431146 0.840032 -0.329332
0.941006 0.029098 -0.337138
0.890808 -0.121778 0.437756
0.774643 0.271675 0.571070
0.886503 0.136322 0.442187
0.334796 -0.789565 -0.514294
0.021504 -0.841708 -0.539505
-0.438434 -0.418944 -0.795149
0.814691 -0.563812 0.135628