# vtk DataFile Version 1.0
Mesh from obj
ASCII
DATASET UNSTRUCTURED_GRID
POINTS 12000 float
0.000000 -0.350000 0.000000
0.052315 -0.358003 0.087192
0.103342 -0.381813 0.172237
0.151825 -0.420846 0.253041
0.196568 -0.474139 0.327614
0.236472 -0.540381 0.394120
0.270553 -0.617940 0.450922
0.297972 -0.704906 0.496621
0.318054 -0.799139 0.530091
0.330305 -0.898318 0.550508
0.334422 -1.000000 0.557370
0.330305 -1.101682 0.550508
0.318054 -1.200861 0.530091
0.297972 -1.295094 0.496621
0.270553 -1.382060 0.450922
0.236472 -1.459619 0.394120
0.196568 -1.525861 0.327614
0.151825 -1.579154 0.253041
0.103342 -1.618187 0.172237
0.052315 -1.641997 0.087192
0.000000 -1.650000 0.000000
-0.052315 -1.641997 -0.087192
-0.103342 -1.618187 -0.172237
-0.151825 -1.579154 -0.253041
-0.196568 -1.525861 -0.327614
-0.236472 -1.459619 -0.394120
-0.270553 -1.382060 -0.450922
-0.297972 -1.295094 -0.496621
-0.318054 -1.200861 -0.530091
-0.330305 -1.101682 -0.550508
-0.334422 -1.000000 -0.557370
-0.330305 -0.898318 -0.550508
-0.318054 -0.799139 -0.530091
-0.297972 -0.704906 -0.496621
-0.270553 -0.617940 -0.450922
-0.236472 -0.540381 -0.394120
-0.196568 -0.474139 -0.327614
-0.151825 -0.420846 -0.253041
-0.103342 -0.381813 -0.172237
-0.052315 -0.358003 -0.087192
0.071759 -0.351409 -0.010502
0.124385 -0.363742 0.075781
0.176526 -0.391704 0.158653
0.226898 -0.434606 0.236071
0.274262 -0.491393 0.306131
0.317449 -0.560665 0.367107
0.355399 -0.640717 0.417497
0.387175 -0.729578 0.456061
0.411995 -0.825061 0.481850
0.429248 -0.924812 0.494227
0.438510 -1.026378 0.492889
0.439553 -1.127256 0.477868
0.432350 -1.224963 0.449534
0.417078 -1.317093 0.408585
0.394115 -1.401377 0.356029
0.364026 -1.475740 0.293161
0.327551 -1.538351 0.221528
0.285588 -1.587668 0.142894
0.239171 -1.622477 0.059195
0.189443 -1.641921 -0.027507
0.137628 -1.645521 -0.115079
0.085002 -1.633188 -0.201362
0.032861 -1.605226 -0.284234
-0.017511 -1.562324 -0.361653
-0.064874 -1.505537 -0.431712
-0.108062 -1.436265 -0.492688
-0.146011 -1.356213 -0.543078
-0.177787 -1.267352 -0.581642
-0.202607 -1.171869 -0.607431
-0.219861 -1.072117 -0.619808
-0.229123 -0.970552 -0.618470
-0.230165 -0.869674 -0.603449
-0.222962 -0.771967 -0.575115
-0.207691 -0.679837 -0.534166
-0.184728 -0.595553 -0.481610
-0.154639 -0.521190 -0.418742
-0.118163 -0.458579 -0.347109
-0.076201 -0.409262 -0.268475
-0.029784 -0.374453 -0.184776
0.019944 -0.355009 -0.098074
0.144105 -0.355434 -0.022054
0.196853 -0.371932 0.062830
0.249907 -0.403745 0.143081
0.301958 -0.450088 0.216723
0.351726 -0.509821 0.281942
0.397986 -0.581472 0.337132
0.439598 -0.663278 0.380935
0.475537 -0.753224 0.412273
0.504920 -0.849095 0.430372
0.527021 -0.948531 0.434788
0.541297 -1.049083 0.425412
0.547397 -1.148276 0.402475
0.545170 -1.243666 0.366542
0.534671 -1.332906 0.318497
0.516158 -1.413797 0.259523
0.490089 -1.484347 0.191073
0.457103 -1.542821 0.114832
0.418014 -1.587777 0.032678
0.373784 -1.618109 -0.053368
0.325502 -1.633070 -0.141185
0.274358 -1.632292 -0.228612
0.221609 -1.615794 -0.313497
0.168556 -1.583981 -0.393747
0.116505 -1.537638 -0.467389
0.066736 -1.477905 -0.532608
0.020477 -1.406254 -0.587799
-0.021135 -1.324448 -0.631602
-0.057075 -1.234502 -0.662939
-0.086457 -1.138631 -0.681039
-0.108558 -1.039195 -0.685455
-0.122834 -0.938642 -0.676079
-0.128934 -0.839450 -0.653142
-0.126707 -0.744060 -0.617208
-0.116208 -0.654820 -0.569163
-0.097696 -0.573929 -0.510190
-0.071626 -0.503378 -0.441740
-0.038640 -0.444905 -0.365499
0.000449 -0.399949 -0.283344
0.044679 -0.369616 -0.197299
0.092960 -0.354655 -0.109481
0.217536 -0.361505 -0.035554
0.270239 -0.381928 0.047515
0.324006 -0.417231 0.124800
0.377514 -0.466543 0.194398
0.429445 -0.528651 0.254596
0.478519 -0.602026 0.303911
0.523529 -0.684861 0.341128
0.563367 -0.775115 0.365332
0.597051 -0.870567 0.375926
0.623751 -0.968867 0.372650
0.642812 -1.067593 0.355584
0.653762 -1.164315 0.325148
0.656333 -1.256652 0.282092
0.650462 -1.342329 0.227476
0.636292 -1.419237 0.162645
0.614173 -1.485483 0.089195
0.584649 -1.539434 0.008935
0.548448 -1.579763 -0.076159
0.506460 -1.605477 -0.163992
0.459720 -1.615942 -0.252401
0.409378 -1.610901 -0.339208
0.356675 -1.590477 -0.422277
0.302907 -1.555175 -0.499563
0.249400 -1.505862 -0.569161
0.197469 -1.443754 -0.629359
0.148395 -1.370379 -0.678673
0.103385 -1.287545 -0.715891
0.063547 -1.197290 -0.740095
0.029863 -1.101838 -0.750689
0.003163 -1.003538 -0.747412
-0.015898 -0.904812 -0.730346
-0.026848 -0.808090 -0.699910
-0.029419 -0.715753 -0.656854
-0.023548 -0.630076 -0.602239
-0.009378 -0.553168 -0.537407
0.012741 -0.486923 -0.463958
0.042265 -0.432971 -0.383697
0.078466 -0.392642 -0.298603
0.120454 -0.366928 -0.210771
0.167194 -0.356463 -0.122362
0.292394 -0.368793 -0.051644
0.344921 -0.392847 0.029296
0.399228 -0.431249 0.103390
0.453978 -0.483051 0.168816
0.507822 -0.546980 0.223961
0.559436 -0.621459 0.267468
0.607548 -0.704657 0.298265
0.650973 -0.794523 0.315595
0.688642 -0.888846 0.319030
0.719628 -0.985303 0.308485
0.743167 -1.081518 0.284222
0.758681 -1.175122 0.246836
0.765786 -1.263811 0.197249
0.764309 -1.345401 0.136681
0.754284 -1.417883 0.066624
0.735960 -1.479472 -0.011197
0.709788 -1.528651 -0.094866
0.676411 -1.564210 -0.182322
0.636652 -1.585273 -0.271413
0.591490 -1.591321 -0.359944
0.542037 -1.582206 -0.445736
0.489510 -1.558151 -0.526675
0.435203 -1.519750 -0.600770
0.380453 -1.467947 -0.666196
0.326608 -1.404019 -0.721341
0.274995 -1.329539 -0.764848
0.226883 -1.246341 -0.795645
0.183458 -1.156475 -0.812975
0.145789 -1.062152 -0.816409
0.114803 -0.965696 -0.805865
0.091263 -0.869481 -0.781602
0.075750 -0.775876 -0.744216
0.068645 -0.687187 -0.694629
0.070122 -0.605597 -0.634061
0.080146 -0.533115 -0.564004
0.098470 -0.471527 -0.486183
0.124643 -0.422347 -0.402514
0.158019 -0.386789 -0.315058
0.197778 -0.365726 -0.225967
0.242940 -0.359678 -0.137436
0.368839 -0.376344 -0.070655
0.421102 -0.403708 0.007951
0.475809 -0.444814 0.078753
0.531612 -0.498649 0.140007
0.587139 -0.563888 0.190204
0.641021 -0.638924 0.228108
0.691932 -0.721910 0.252787
0.738617 -0.810802 0.263633
0.779929 -0.903411 0.260377
0.814849 -0.997457 0.243102
0.842517 -1.090625 0.212231
0.862252 -1.180620 0.168526
0.873569 -1.265226 0.113062
0.876188 -1.342360 0.047205
0.870046 -1.410123 -0.027424
0.855293 -1.466846 -0.108986
0.832292 -1.511133 -0.195474
0.801611 -1.541892 -0.284757
0.764004 -1.558367 -0.374638
0.720397 -1.560152 -0.462903
0.671865 -1.547203 -0.547379
0.619602 -1.519838 -0.625985
0.564895 -1.478732 -0.696787
0.509091 -1.424897 -0.758041
0.453565 -1.359659 -0.808238
0.399683 -1.284623 -0.846142
0.348772 -1.201637 -0.870821
0.302086 -1.112745 -0.881667
0.260775 -1.020136 -0.878411
0.225855 -0.926089 -0.861136
0.198187 -0.832922 -0.830265
0.178451 -0.742927 -0.786560
0.167135 -0.658321 -0.731096
0.164515 -0.581186 -0.665239
0.170658 -0.513424 -0.590610
0.185411 -0.456701 -0.509048
0.208411 -0.412414 -0.422560
0.239093 -0.381655 -0.333277
0.276700 -0.365180 -0.243396
0.320306 -0.363395 -0.155131
0.446851 -0.383207 -0.092620
0.498809 -0.413555 -0.016444
0.553818 -0.456991 0.051073
0.610523 -0.512444 0.108268
0.667528 -0.578550 0.153732
0.723430 -0.653680 0.186346
0.776852 -0.735985 0.205308
0.826479 -0.823437 0.210150
0.871088 -0.913884 0.200752
0.909581 -1.005099 0.177347
0.941011 -1.094835 0.140511
0.964603 -1.180883 0.091151
0.979776 -1.261124 0.030481
0.986158 -1.333582 -0.040003
0.983590 -1.396473 -0.118567
0.972136 -1.448249 -0.203276
0.952079 -1.487634 -0.292044
0.923911 -1.513659 -0.382685
0.888327 -1.525684 -0.472968
0.846202 -1.523411 -0.560669
0.798575 -1.506897 -0.643629
0.746617 -1.476548 -0.719805
0.691608 -1.433112 -0.787322
0.634903 -1.377659 -0.844517
0.577898 -1.311553 -0.889981
0.521996 -1.236423 -0.922596
0.468574 -1.154118 -0.941557
0.418947 -1.066666 -0.946399
0.374338 -0.976219 -0.937002
0.335845 -0.885004 -0.913597
0.304415 -0.795268 -0.876760
0.280823 -0.709220 -0.827400
0.265650 -0.628979 -0.766730
0.259268 -0.556521 -0.696246
0.261836 -0.493630 -0.617682
0.273290 -0.441854 -0.532973
0.293347 -0.402469 -0.444205
0.321515 -0.376444 -0.353564
0.357099 -0.364420 -0.263281
0.399224 -0.366693 -0.175580
0.526264 -0.388526 -0.117323
0.577918 -0.421547 -0.043581
0.633172 -0.466972 0.020750
0.690666 -0.523685 0.074086
0.748985 -0.590289 0.115114
0.806692 -0.665144 0.142823
0.862367 -0.746406 0.156532
0.914638 -0.832074 0.155902
0.962219 -0.920040 0.140949
1.003937 -1.008137 0.112041
1.038767 -1.094196 0.069891
1.065849 -1.176098 0.015535
1.084517 -1.251826 -0.049687
1.094312 -1.319515 -0.124170
1.094992 -1.377499 -0.206080
1.086541 -1.424351 -0.293399
1.069166 -1.458915 -0.383978
1.043296 -1.480342 -0.475586
1.009567 -1.488103 -0.565968
0.968810 -1.482008 -0.652898
0.922029 -1.462207 -0.734235
0.870375 -1.429187 -0.807977
0.815121 -1.383761 -0.872309
0.757627 -1.327048 -0.925645
0.699308 -1.260444 -0.966673
0.641601 -1.185590 -0.994382
0.585926 -1.104328 -1.008090
0.533655 -1.018659 -1.007460
0.486074 -0.930693 -0.992507
0.444356 -0.842596 -0.963600
0.409527 -0.756537 -0.921449
0.382445 -0.674635 -0.867094
0.363776 -0.598907 -0.801871
0.353981 -0.531218 -0.727388
0.353301 -0.473234 -0.645479
0.361753 -0.426383 -0.558160
0.379127 -0.391818 -0.467581
0.404998 -0.370391 -0.375973
0.438726 -0.362630 -0.285591
0.479483 -0.368725 -0.198661
0.606804 -0.391600 -0.144372
0.658190 -0.427004 -0.072992
0.713671 -0.474123 -0.011678
0.771882 -0.531797 0.038062
0.831388 -0.598604 0.075003
0.890725 -0.672901 0.098234
0.948431 -0.752858 0.107183
1.003085 -0.836505 0.101632
1.053342 -0.921784 0.081715
1.097965 -1.006595 0.047924
1.135853 -1.088849 0.001091
1.166076 -1.166520 -0.057632
1.187887 -1.237697 -0.126798
1.200751 -1.300626 -0.204704
1.204350 -1.353759 -0.289432
1.198597 -1.395786 -0.378896
1.183631 -1.425673 -0.470892
1.159823 -1.442685 -0.563156
1.127758 -1.446401 -0.653415
1.088226 -1.436731 -0.739448
1.042200 -1.413913 -0.819135
0.990814 -1.378509 -0.890515
0.935333 -1.331390 -0.951830
0.877122 -1.273717 -1.001570
[...]
POINT_DATA 12000

VECTORS fields float
1.000000 0.000000 -0.000000
0.996651 -0.081727 0.002776
0.986015 -0.166574 0.005189
0.967323 -0.253543 -0.001233
0.940839 -0.338067 -0.023080
0.908307 -0.413346 -0.064211
0.872946 -0.471347 -0.125690
0.839362 -0.503031 -0.205990
0.813550 -0.497660 -0.300782
0.802698 -0.441225 -0.401243
0.813373 -0.315181 -0.488964
0.844215 -0.102533 -0.526106
0.872008 0.180013 -0.455190
0.860753 0.441093 -0.254048
0.812346 0.583129 0.007379
0.759457 0.601800 0.247107
0.718747 0.540462 0.437383
0.689209 0.433731 0.580403
0.664764 0.301241 0.683624
0.639695 0.154215 0.753000
0.609711 0.000000 0.792624
0.571788 -0.155797 0.805473
0.523799 -0.308399 0.794056
0.464129 -0.453466 0.760890
0.391174 -0.586909 0.708887
0.302314 -0.704641 0.641941
0.190337 -0.801655 0.566676
0.020199 -0.864042 0.503014
-0.861139 0.024800 0.507765
-0.088798 0.987418 -0.130847
0.113624 0.991052 -0.070034
0.275390 0.961276 0.010389
0.430361 0.899062 0.080485
0.580021 0.804474 0.128051
0.716749 0.681909 0.145844
0.829338 0.542582 0.133427
0.909809 0.402952 0.099387
0.958932 0.277528 0.058544
0.984812 0.171845 0.024778
0.996611 0.082078 0.005372
0.999141 -0.041374 0.002201
0.992172 -0.124384 0.011146
0.977267 -0.211330 0.017006
0.953733 -0.300426 0.011756
0.922089 -0.386833 -0.010592
0.884293 -0.463875 -0.053343
0.843671 -0.523920 -0.117161
0.804917 -0.558527 -0.200390
0.774341 -0.557623 -0.299086
0.760288 -0.507316 -0.405699
0.772522 -0.386341 -0.503936
0.815146 -0.166429 -0.554832
0.862368 0.153485 -0.482457
0.853375 0.462008 -0.241454
0.786509 0.614109 0.065375
0.718048 0.616085 0.323800
0.670631 0.535406 0.513414
0.639514 0.413913 0.647841
0.615492 0.271311 0.739973
0.591268 0.117760 0.797831
0.561788 -0.040242 0.826302
0.523593 -0.197621 0.828731
0.474208 -0.349903 0.807895
0.411609 -0.492876 0.766584
0.333580 -0.622391 0.708064
0.236431 -0.733948 0.636726
0.110987 -0.821113 0.559871
-0.077748 -0.864843 0.495986
-0.615206 -0.579717 0.534275
-0.249809 0.968179 0.015007
0.089619 0.995973 -0.002459
0.293534 0.954456 0.053411
0.470344 0.876231 0.104862
0.630382 0.764687 0.133686
0.766604 0.628079 0.133548
0.869529 0.481916 0.108054
0.936460 0.343831 0.069447
0.973831 0.224932 0.032543
0.992015 0.125876 0.007870
0.999201 0.039952 -0.001238
0.996897 -0.078188 0.009096
0.986273 -0.163391 0.023835
0.966899 -0.253067 0.032595
0.938287 -0.344719 0.028035
0.901211 -0.433354 0.004852
0.857763 -0.512511 -0.039697
0.811257 -0.575027 -0.105862
0.766287 -0.613198 -0.191813
0.729187 -0.617979 -0.293918
0.709054 -0.576535 -0.406017
0.718910 -0.466744 -0.515090
0.771873 -0.249159 -0.584920
0.847614 0.110267 -0.519029
0.844641 0.486238 -0.223951
0.748785 0.647327 0.142441
0.661295 0.624351 0.415782
0.608881 0.521368 0.597863
0.578553 0.385256 0.718926
0.556804 0.233636 0.797110
0.534682 0.074802 0.841736
0.506495 -0.085810 0.857963
0.468480 -0.243663 0.849208
0.417946 -0.394518 0.818338
0.352643 -0.534203 0.768290
0.270094 -0.658408 0.702529
0.166421 -0.762166 0.625625
0.033220 -0.838010 0.544643
-0.154501 -0.866729 0.474246
-0.509969 -0.724799 0.463246
-0.638063 0.710953 0.295672
0.025644 0.995802 0.087865
0.311568 0.945199 0.097591
0.519915 0.845609 0.120970
0.688999 0.713785 0.125666
0.818428 0.564640 0.106565
0.905980 0.417240 0.071497
0.957414 0.286693 0.034132
0.984044 0.177809 0.006371
0.996261 0.086191 -0.005966
0.999988 0.003446 -0.003369
0.993962 -0.107629 0.021346
0.979713 -0.196067 0.041464
0.955800 -0.289278 0.052571
0.922025 -0.384120 0.048175
0.879392 -0.475506 0.023731
0.830050 -0.557219 -0.022900
0.777176 -0.622594 -0.091504
0.725066 -0.664751 -0.179961
0.679678 -0.675982 -0.284758
0.650075 -0.645496 -0.400920
0.651387 -0.553165 -0.519331
0.707623 -0.353367 -0.611883
0.821729 0.036901 -0.568683
0.834787 0.513106 -0.199633
0.692140 0.678917 0.244977
0.584469 0.620883 0.522398
0.531650 0.494802 0.687401
0.505868 0.346096 0.790137
0.488839 0.187712 0.851939
0.470368 0.025544 0.882101
0.444462 -0.136029 0.885409
0.407296 -0.292895 0.865056
0.356172 -0.440928 0.823847
0.288883 -0.575900 0.764778
0.203159 -0.693304 0.691416
0.095895 -0.787870 0.608330
-0.038471 -0.852069 0.522014
-0.212671 -0.870618 0.443616
-0.464811 -0.789955 0.399902
-0.862791 -0.200101 0.464276
-0.179138 0.952329 0.246941
0.325817 0.934516 0.143258
0.584328 0.802685 0.119407
0.755973 0.647769 0.094339
0.868371 0.492353 0.059330
0.935309 0.353111 0.022574
0.971531 0.236850 -0.005496
0.989894 0.140596 -0.018520
0.998292 0.056306 -0.015586
0.999702 -0.024422 -0.000198
0.990812 -0.129263 0.039778
0.972891 -0.222067 0.064579
0.944388 -0.319644 0.077199
0.905448 -0.418282 0.072140
0.857270 -0.512834 0.045699
0.801985 -0.597334 -0.003594
0.742526 -0.665607 -0.074975
0.682695 -0.711623 -0.165891
0.627667 -0.729167 -0.272672
0.585471 -0.710161 -0.391017
0.570894 -0.639260 -0.515196
0.615376 -0.474934 -0.629087
0.768191 -0.087114 -0.634266
0.823135 0.543426 -0.164733
0.603310 0.700987 0.380309
0.482440 0.598657 0.639423
0.438066 0.452848 0.776548
0.421947 0.295799 0.857009
0.412524 0.133970 0.901042
0.399441 -0.029027 0.916299
0.376977 -0.189577 0.906614
0.341574 -0.343764 0.874731
0.290798 -0.487432 0.823314
0.222808 -0.616233 0.755390
0.136026 -0.725544 0.674598
0.028863 -0.810183 0.585466
-0.100584 -0.863688 0.493888
-0.255198 -0.876463 0.408273
-0.441238 -0.829239 0.343034
-0.678451 -0.653980 0.334685
-0.836932 0.225710 0.498598
0.323586 0.925522 0.196724
0.678426 0.730758 0.075698
0.830231 0.556941 0.023085
0.911204 0.411714 -0.014124
0.955041 0.293957 -0.038548
0.979022 0.198168 -0.047390
0.992486 0.115599 -0.040104
0.999111 0.037424 -0.019413
0.999031 -0.042995 0.009432
0.987350 -0.144551 0.065161
0.965552 -0.242826 0.093511
0.932380 -0.345471 0.106385
0.888338 -0.448297 0.099426
0.834775 -0.546139 0.069871
0.773733 -0.633284 0.016995
0.707808 -0.704036 -0.057804
0.640159 -0.753174 -0.151411
0.574854 -0.775944 -0.259720
0.517997 -0.767110 -0.378446
0.481147 -0.717513 -0.503660
0.493372 -0.599999 -0.629750
0.648715 -0.283852 -0.706113
0.805423 0.582881 -0.107443
0.459495 0.696138 0.551594
0.351784 0.550480 0.757112
0.329110 0.394260 0.858048
0.328494 0.235085 0.914782
0.329618 0.073803 0.941225
0.323668 -0.087259 0.942139
0.305893 -0.244690 0.920085
0.273375 -0.394478 0.877299
0.224226 -0.532305 0.816317
0.157275 -0.653705 0.740226
0.071990 -0.754133 0.652764
-0.031391 -0.828969 0.558413
-0.151490 -0.873597 0.462470
-0.285144 -0.883727 0.371106
-0.426708 -0.856212 0.291240
-0.568204 -0.789991 0.230344
-0.703757 -0.681865 0.199465
-0.657958 0.471990 0.586785
0.836903 0.537133 -0.105267
0.901403 0.416379 -0.118745
0.939181 0.321675 -0.120268
0.963713 0.242781 -0.110971
0.980988 0.172317 -0.089266
0.993100 0.102885 -0.056269
0.999465 0.028666 -0.015776
0.998205 -0.053589 0.026735
0.982898 -0.155919 0.097979
0.956887 -0.260614 0.128252
0.918966 -0.368768 0.139688
0.869979 -0.475853 0.129232
0.811358 -0.576754 0.095145
0.744980 -0.666031 0.037512
0.673032 -0.738444 -0.041578
0.597942 -0.789508 -0.138358
0.522488 -0.815758 -0.248083
0.450324 -0.814448 -0.365900
0.387715 -0.782160 -0.487753
0.350587 -0.709167 -0.611695
0.412618 -0.535301 -0.737021
0.748950 0.661520 0.038281
0.234225 0.631322 0.739304
0.194644 0.472023 0.859830
0.208332 0.320223 0.924151
0.228453 0.166043 0.959291
0.242588 0.009342 0.970085
0.245276 -0.147138 0.958222
0.233391 -0.299508 0.925107
0.204975 -0.443372 0.872586
0.158917 -0.574163 0.803170
0.094920 -0.687375 0.720073
0.013642 -0.778771 0.627160
-0.082998 -0.844666 0.528820
-0.191332 -0.882472 0.429692
-0.305367 -0.891737 0.334000
-0.416250 -0.875894 0.244022
-0.511220 -0.845112 0.156334
-0.565956 -0.822955 0.049390
-0.455729 -0.868435 -0.195273
0.694414 -0.308453 -0.650112
0.910964 0.169651 -0.375982
0.938928 0.217999 -0.266252
0.960240 0.200367 -0.194403
0.978764 0.158978 -0.129409
0.992753 0.100947 -0.065208
0.999607 0.027863 -0.003182
0.996886 -0.058632 0.052723
0.976380 -0.165985 0.138319
0.945783 -0.277741 0.168388
0.903129 -0.391487 0.176342
0.849512 -0.502542 0.160566
0.786349 -0.605938 0.120396
0.715273 -0.696537 0.056747
0.638006 -0.769537 -0.027584
0.556210 -0.821103 -0.128142
0.471344 -0.848825 -0.239439
0.384501 -0.851858 -0.355663
0.296050 -0.830890 -0.471144
0.204172 -0.788547 -0.580093
0.093388 -0.734528 -0.672121
-0.583045 0.200722 0.787254
-0.063232 0.475733 0.877314
0.022005 0.366006 0.930352
0.081749 0.234557 0.968659
0.125665 0.091761 0.987820
0.154286 -0.056957 0.986383
0.166659 -0.206671 0.964112
0.161666 -0.352413 0.921775
0.138501 -0.489196 0.861107
0.096961 -0.612187 0.784746
0.037690 -0.716947 0.696108
-0.037541 -0.799739 0.599173
-0.125531 -0.857953 0.498155
-0.221370 -0.890750 0.396937
-0.318287 -0.899908 0.298093
-0.407645 -0.890711 0.201147
-0.478269 -0.872574 0.099362
-0.511062 -0.859095 -0.027770
-0.447531 -0.862107 -0.237672
-0.029519 -0.772261 -0.634619
0.684927 -0.210110 -0.697660
0.884873 0.092542 -0.456547
0.942505 0.165046 -0.290594
0.973419 0.156577 -0.167150
0.992044 0.107521 -0.065486
0.999285 0.032315 0.019622
0.994249 -0.060906 0.088086
0.966490 -0.177098 0.185834
0.931074 -0.296120 0.213105
0.883923 -0.415119 0.215303
0.826222 -0.529497 0.192327
0.759243 -0.634548 0.144568
0.684295 -0.725468 0.073733
0.602597 -0.797871 -0.016702
0.515056 -0.848486 -0.121611
0.421888 -0.875734 -0.234736
0.321838 -0.880070 -0.349137
0.210026 -0.864447 -0.456750
0.069629 -0.836242 -0.543921
-0.178805 -0.813556 -0.553312
-0.850140 -0.417336 0.321081
-0.350516 0.258994 0.900034
-0.148366 0.243560 0.958471
-0.043387 0.142885 0.988788
0.024230 0.015670 0.999584
0.067541 -0.122767 0.990135
0.090039 -0.264208 0.960254
0.092618 -0.402259 0.910829
0.075640 -0.531257 0.843827
0.039807 -0.646141 0.762179
-0.013349 -0.742645 0.669552
-0.081154 -0.817627 0.570001
-0.159593 -0.869487 0.467464
-0.243310 -0.898635 0.365042
-0.325823 -0.907825 0.263993
-0.399828 -0.902093 0.162376
-0.456886 -0.887935 0.053155
-0.484362 -0.871293 -0.079006
-0.452663 -0.851586 -0.264381
-0.268642 -0.790710 -0.550100
0.246813 -0.504253 -0.827534
0.734454 -0.061008 -0.675910
0.904892 0.132570 -0.404470
0.965498 0.163029 -0.203062
0.991182 0.120184 -0.055811
0.997781 0.039249 0.053774
0.989079 -0.063112 0.133194
0.951825 -0.191151 0.239771
0.911703 -0.317091 0.261250
0.860645 -0.440561 0.255335
0.799696 -0.557301 0.223387
0.729845 -0.662969 0.166731
0.652004 -0.753119 0.087766
0.566876 -0.823749 -0.009430
0.474658 -0.872074 -0.119110
0.374463 -0.897158 -0.234273
0.263082 -0.900273 -0.346837
0.131673 -0.885209 -0.446169
-0.045421 -0.858707 -0.510450
-0.356201 -0.819096 -0.449670
-0.845144 -0.485707 0.223205
-0.553727 0.056391 0.830787
-0.299927 0.119525 0.946445
-0.160453 0.051067 0.985721
-0.072208 -0.059145 0.995634
-0.015225 -0.186250 0.982384
0.017222 -0.318633 0.947722
0.027668 -0.448447 0.893381
0.017494 -0.569387 0.821883
-0.011793 -0.676242 0.736585
-0.057927 -0.764993 0.641428
-0.117580 -0.833095 0.540488
-0.186323 -0.879772 0.437362
-0.258854 -0.906179 0.334415
-0.329424 -0.915248 0.231949
-0.392256 -0.910993 0.127388
-0.441403 -0.897191 0.014542
-0.468977 -0.875395 -0.117231
-0.459142 -0.841562 -0.284538
-0.369644 -0.776295 -0.510617
-0.086840 -0.608197 -0.789022
0.458675 -0.226302 -0.859305
0.833537 0.095366 -0.544170
0.954852 0.176219 -0.239175
0.990021 0.136603 -0.034597
0.993875 0.045958 0.100496
0.979809 -0.067690 0.188128
0.930964 -0.209543 0.298994
0.886819 -0.341424 0.311418
0.832902 -0.468162 0.295125
0.769861 -0.586059 0.252683
0.698281 -0.691202 0.186128
0.618640 -0.779489 0.098389
0.531138 -0.847264 -0.005953
0.435331 -0.892155 -0.120605
0.329407 -0.913729 -0.237887
0.208647 -0.913739 -0.348637
0.061666 -0.895953 -0.439847
-0.140140 -0.864228 -0.483189
-0.465434 -0.800166 -0.378293
-0.841236 -0.512330 0.172742
-0.674732 -0.096424 0.731737
-0.424088 0.005480 0.905604
-0.264915 -0.036278 0.963589
-0.160963 -0.130420 0.978305
-0.092229 -0.246222 0.964815
-0.050533 -0.369391 0.927899
-0.032298 -0.490857 0.870641
-0.035392 -0.603806 0.796345
-0.057680 -0.702968 0.708878
-0.096343 -0.784613 0.612454
-0.147639 -0.846732 0.511125
-0.207015 -0.889146 0.408123
-0.269485 -0.913368 0.305185
-0.330156 -0.922065 0.201974
-0.384643 -0.918082 0.095791
-0.428980 -0.903127 -0.018363
-0.458492 -0.876377 -0.147474
-0.464539 -0.833023 -0.300459
-0.425675 -0.761404 -0.488942
-0.280993 -0.631144 -0.722980
0.119525 -0.357235 -0.926335
0.697370 0.040887 -0.715544
0.940244 0.194149 -0.279729
0.987994 0.154488 0.000692
0.985657 0.049696 0.161276
0.964498 -0.076817 0.252670
0.902543 -0.233201 0.361986
0.855845 -0.369394 0.362046
0.800624 -0.497849 0.333387
0.736946 -0.615552 0.279296
0.664940 -0.719005 0.202203
0.584659 -0.804407 0.105376
0.495843 -0.868390 -0.006217
0.397499 -0.908936 -0.125816
0.287071 -0.926012 -0.245135
0.158767 -0.921655 -0.354042
-0.000082 -0.899219 -0.437498
-0.216895 -0.859519 -0.462801
-0.534975 -0.776628 -0.332642
-0.838641 -0.527260 0.136670
-0.743692 -0.204555 0.636459
-0.520382 -0.093294 0.848822
-0.354718 -0.116456 0.927692
-0.240469 -0.196863 0.950484
-0.162372 -0.302138 0.939334
-0.112493 -0.416390 0.902200
-0.086868 -0.529712 0.843717
-0.082922 -0.634960 0.768082
-0.098099 -0.726897 0.679704
-0.129214 -0.802096 0.583049
-0.172311 -0.858997 0.482113
-0.222895 -0.897819 0.379788
-0.276410 -0.920164 0.277300
-0.328794 -0.928246 0.173934
-0.376836 -0.923843 0.067149
-0.418084 -0.907200 -0.046844
-0.450025 -0.876241 -0.172278
-0.468071 -0.826271 -0.313345
-0.460840 -0.749630 -0.475060
-0.396180 -0.631989 -0.666057
-0.169555 -0.430753 -0.886399
0.443685 -0.046589 -0.894971
0.917932 0.214641 -0.333661
0.983723 0.171177 0.054661
0.970121 0.047420 0.237944
0.940777 -0.092448 0.326179
0.865352 -0.262619 0.426847
0.818504 -0.400893 0.411505
0.764031 -0.529278 0.368947
0.701410 -0.645384 0.302496
0.630378 -0.746034 0.214608
0.550629 -0.827643 0.108696
0.461524 -0.887071 -0.009998
0.361622 -0.922599 -0.134318
0.247795 -0.934529 -0.255445
0.113573 -0.925078 -0.362398
-0.054009 -0.897109 -0.438496
-0.278795 -0.849156 -0.448561
-0.581427 -0.754544 -0.304313
-0.836436 -0.537477 0.107206
-0.783414 -0.281979 0.553851
-0.592748 -0.176494 0.785811
-0.429802 -0.188551 0.883017
-0.310143 -0.258045 0.914999
-0.225159 -0.353959 0.907754
-0.168364 -0.459867 0.871881
-0.135978 -0.565435 0.813507
-0.125290 -0.663382 0.737717
-0.133518 -0.748591 0.649449
-0.157282 -0.817938 0.553389
-0.192559 -0.870225 0.453463
-0.235020 -0.905915 0.352256
-0.280573 -0.926538 0.250611
-0.325901 -0.933809 0.147611
-0.368759 -0.928619 0.041018
-0.407850 -0.910216 -0.071863
-0.442141 -0.875893 -0.193190
-0.469464 -0.821342 -0.324039
-0.483822 -0.741277 -0.465215
-0.468452 -0.628628 -0.620790
-0.368011 -0.465083 -0.805149
0.060165 -0.163472 -0.984712
0.875431 0.233661 -0.423112
0.973712 0.182598 0.136171
0.942459 0.035417 0.332440
0.905838 -0.116320 0.407342
0.818469 -0.297879 0.491301
0.774839 -0.435540 0.458180
0.723570 -0.561963 0.400804
0.663851 -0.675110 0.321759
0.595219 -0.771949 0.223180
0.517145 -0.848998 0.108462
0.428710 -0.903283 -0.016966
0.328128 -0.933342 -0.145617
0.211869 -0.939774 -0.268208
0.073107 -0.924936 -0.373027
-0.100683 -0.891288 -0.442119
-0.328647 -0.836061 -0.439310
-0.613602 -0.735494 -0.287300
-0.834009 -0.545692 0.081543
-0.806569 -0.339750 0.483753
-0.646193 -0.246273 0.722346
-0.491295 -0.252879 0.833475
-0.370116 -0.314146 0.874258
-0.280535 -0.401980 0.871615
-0.218153 -0.500235 0.837958
-0.179789 -0.598520 0.780672
-0.162843 -0.689598 0.705647
-0.164487 -0.768543 0.618293
-0.181279 -0.832529 0.523481
-0.209237 -0.880650 0.425059
-0.244255 -0.913503 0.325348
-0.282695 -0.932470 0.224909
-0.321889 -0.938787 0.122741
-0.360389 -0.932648 0.016960
-0.397786 -0.912632 -0.094180
-0.434091 -0.875747 -0.211264
-0.468656 -0.818133 -0.333197
-0.498544 -0.736071 -0.457879
-0.515361 -0.626280 -0.584958
-0.493990 -0.482436 -0.723346
-0.314150 -0.266240 -0.911277
0.751463 0.233641 -0.617021
0.947806 0.180407 0.262901
0.895064 0.008990 0.445848
0.856569 -0.149864 0.493792
0.761426 -0.338673 0.552749
0.725211 -0.472785 0.500543
0.679856 -0.595386 0.428149
0.624925 -0.704322 0.336748
0.560085 -0.796470 0.227906
0.484757 -0.868337 0.104889
0.397861 -0.917056 -0.026738
0.297373 -0.941393 -0.159210
0.179501 -0.942221 -0.282840
0.037336 -0.922038 -0.385295
-0.140698 -0.883056 -0.447679
-0.368701 -0.822065 -0.433900
-0.636248 -0.719756 -0.277739
-0.830937 -0.553295 0.058370
-0.819760 -0.385119 0.423883
-0.685157 -0.305448 0.661257
-0.540823 -0.310401 0.781768
-0.420934 -0.365702 0.830106
-0.328726 -0.446674 0.832119
-0.262048 -0.537978 0.801193
-0.218566 -0.629461 0.745659
-0.195977 -0.714075 0.672079
-0.191540 -0.787153 0.586261
-0.201857 -0.846161 0.493219
-0.223055 -0.890430 0.396712
-0.251283 -0.920626 0.298839
-0.283320 -0.937950 0.199950
-0.317069 -0.943218 0.099034
-0.351734 -0.936084 -0.005440
-0.387616 -0.914692 -0.114422
-0.425488 -0.875959 -0.227278
-0.465695 -0.816466 -0.341339
-0.507103 -0.733609 -0.452400
-0.545873 -0.626376 -0.556485
-0.572617 -0.494615 -0.653809
-0.554228 -0.331255 -0.763610
0.087439 0.062805 -0.994188
0.871819 0.143445 0.468353
0.816708 -0.037383 0.575840
0.789966 -0.193957 0.581665
0.694377 -0.384315 0.608393
0.670271 -0.511993 0.537215
0.633601 -0.629066 0.450361
0.585287 -0.732691 0.347280
0.525536 -0.819408 0.228872
0.453929 -0.885604 0.098249
0.369341 -0.928479 -0.038917
0.269608 -0.947006 -0.174615
0.150804 -0.942322 -0.298810
0.006150 -0.917084 -0.398648
-0.174632 -0.873420 -0.454578
-0.400679 -0.808325 -0.431356
-0.652034 -0.707265 -0.273181
-0.826907 -0.561124 0.036937
-0.826448 -0.422689 0.371911
-0.713066 -0.356654 0.603602
-0.580055 -0.362308 0.729568
-0.463332 -0.413398 0.783853
-0.370099 -0.488568 0.790144
-0.300318 -0.573570 0.762119
-0.252604 -0.658693 0.708741
-0.225064 -0.737200 0.637088
-0.215141 -0.804731 0.553283
-0.219552 -0.859044 0.462429
-0.234578 -0.899670 0.368194
-0.256627 -0.927306 0.272480
-0.282862 -0.942973 0.175474
-0.311677 -0.947129 0.076190
-0.342834 -0.939020 -0.026577
-0.377206 -0.916513 -0.133113
-0.416151 -0.876547 -0.241835
-0.460693 -0.816113 -0.348886
-0.510770 -0.733463 -0.448493
-0.564965 -0.629107 -0.533890
-0.621219 -0.506419 -0.598019
-0.680519 -0.372712 -0.630856
-0.790380 -0.260649 -0.554402
0.630838 0.019334 0.775673
0.693954 -0.108307 0.711827
0.703953 -0.248524 0.665346
0.618241 -0.433797 0.655437
0.610925 -0.552510 0.567013
0.585566 -0.662596 0.466989
0.545545 -0.759982 0.353282
0.492052 -0.840658 0.226228
0.425026 -0.900812 0.088832
0.343409 -0.937683 -0.053119
0.244985 -0.950448 -0.191390
0.125798 -0.940500 -0.315649
-0.020621 -0.910674 -0.412610
-0.203024 -0.863162 -0.462312
-0.425881 -0.795585 -0.430895
-0.662521 -0.697889 -0.272061
-0.821664 -0.569727 0.016742
-0.828485 -0.455407 0.325909
-0.732390 -0.402063 0.549500
-0.610484 -0.409763 0.677794
-0.498073 -0.457932 0.736357
-0.405064 -0.528169 0.746298
-0.333244 -0.607429 0.721095
-0.282170 -0.686576 0.670070
-0.250414 -0.759272 0.600665
-0.235658 -0.821504 0.519226
-0.234779 -0.871322 0.430903
-0.244232 -0.908436 0.339256
-0.260677 -0.933557 0.246005
-0.281627 -0.947536 0.151204
-0.305904 -0.950535 0.053901
-0.333749 -0.941499 -0.046822
-0.366516 -0.918125 -0.150706
-0.406033 -0.877440 -0.255415
-0.453804 -0.816821 -0.356181
-0.510410 -0.735210 -0.446037
-0.575622 -0.634232 -0.516148
-0.650241 -0.519496 -0.554355
-0.743284 -0.404784 -0.532616
-0.899175 -0.345579 -0.268439
0.089597 -0.213899 0.972738
0.518855 -0.203020 0.830405
0.598549 -0.312138 0.737773
0.534744 -0.485862 0.691366
0.548290 -0.593705 0.588976
0.536520 -0.695651 0.477720
0.506247 -0.786043 0.354755
0.460019 -0.860184 0.220150
0.398308 -0.914021 0.076922
0.320220 -0.944828 -0.068989
0.223555 -0.951989 -0.209143
0.104424 -0.937144 -0.332952
-0.043189 -0.903322 -0.426784
-0.226365 -0.852887 -0.470471
-0.445278 -0.784332 -0.431916
-0.668649 -0.691505 -0.273367
-0.814986 -0.579475 -0.002591
-0.826869 -0.485202 0.284370
-0.744855 -0.443356 0.498625
-0.633343 -0.453786 0.626862
-0.525861 -0.499932 0.688141
-0.434016 -0.565913 0.700979