# vtk DataFile Version 1.0
Mesh from obj
ASCII
DATASET UNSTRUCTURED_GRID
POINTS 3840 float
1.250000 0.000000 0.000000
1.247861 0.032632 0.000000
1.241481 0.064705 0.000000
1.230970 0.095671 0.000000
1.216506 0.125000 0.000000
1.198338 0.152190 0.000000
1.176777 0.176777 0.000000
1.152190 0.198338 0.000000
1.125000 0.216506 0.000000
1.095671 0.230970 0.000000
1.064705 0.241481 0.000000
1.032632 0.247861 0.000000
1.000000 0.250000 0.000000
0.967368 0.247861 0.000000
0.935295 0.241481 0.000000
0.904329 0.230970 0.000000
0.875000 0.216506 0.000000
0.847810 0.198338 0.000000
0.823223 0.176777 0.000000
0.801662 0.152190 0.000000
0.783494 0.125000 0.000000
0.769030 0.095671 0.000000
0.758519 0.064705 0.000000
0.752139 0.032632 0.000000
0.750000 0.000000 0.000000
0.752139 -0.032632 0.000000
0.758519 -0.064705 0.000000
0.769030 -0.095671 0.000000
0.783494 -0.125000 0.000000
0.801662 -0.152190 0.000000
0.823223 -0.176777 0.000000
0.847810 -0.198338 0.000000
0.875000 -0.216506 0.000000
0.904329 -0.230970 0.000000
0.935295 -0.241481 0.000000
0.967368 -0.247861 0.000000
1.000000 -0.250000 0.000000
1.032632 -0.247861 0.000000
1.064705 -0.241481 0.000000
1.095671 -0.230970 0.000000
1.125000 -0.216506 0.000000
1.152190 -0.198338 0.000000
1.176777 -0.176777 0.000000
1.198338 -0.152190 0.000000
1.216506 -0.125000 0.000000
1.230970 -0.095671 0.000000
1.241481 -0.064705 0.000000
1.247861 -0.032632 0.000000
1.246147 0.000000 -0.098074
1.244015 0.032632 -0.097906
1.237654 0.064705 -0.097406
1.227175 0.095671 -0.096581
1.212756 0.125000 -0.095446
1.194644 0.152190 -0.094021
1.173149 0.176777 -0.092329
1.148638 0.198338 -0.090400
1.121532 0.216506 -0.088267
1.092293 0.230970 -0.085965
1.061423 0.241481 -0.083536
1.029448 0.247861 -0.081019
0.996917 0.250000 -0.078459
0.964386 0.247861 -0.075899
0.932412 0.241481 -0.073382
0.901541 0.230970 -0.070953
0.872303 0.216506 -0.068652
0.845196 0.198338 -0.066518
0.820686 0.176777 -0.064589
0.799190 0.152190 -0.062898
0.781078 0.125000 -0.061472
0.766659 0.095671 -0.060337
0.756180 0.064705 -0.059513
0.749820 0.032632 -0.059012
0.747688 0.000000 -0.058844
0.749820 -0.032632 -0.059012
0.756180 -0.064705 -0.059513
0.766659 -0.095671 -0.060337
0.781078 -0.125000 -0.061472
0.799190 -0.152190 -0.062898
0.820686 -0.176777 -0.064589
0.845196 -0.198338 -0.066518
0.872303 -0.216506 -0.068652
0.901541 -0.230970 -0.070953
0.932412 -0.241481 -0.073382
0.964386 -0.247861 -0.075899
0.996917 -0.250000 -0.078459
1.029448 -0.247861 -0.081019
1.061423 -0.241481 -0.083536
1.092293 -0.230970 -0.085965
1.121532 -0.216506 -0.088267
1.148638 -0.198338 -0.090400
1.173149 -0.176777 -0.092329
1.194644 -0.152190 -0.094021
1.212756 -0.125000 -0.095446
1.227175 -0.095671 -0.096581
1.237654 -0.064705 -0.097406
1.244015 -0.032632 -0.097906
1.234610 0.000000 -0.195543
1.232498 0.032632 -0.195209
1.226197 0.064705 -0.194211
1.215815 0.095671 -0.192566
1.201529 0.125000 -0.190304
1.183585 0.152190 -0.187461
1.162289 0.176777 -0.184088
1.138005 0.198338 -0.180242
1.111149 0.216506 -0.175989
1.082181 0.230970 -0.171401
1.051596 0.241481 -0.166557
1.019918 0.247861 -0.161539
0.987688 0.250000 -0.156435
0.955458 0.247861 -0.151330
0.923780 0.241481 -0.146312
0.893195 0.230970 -0.141468
0.864227 0.216506 -0.136880
0.837372 0.198338 -0.132627
0.813088 0.176777 -0.128781
0.791792 0.152190 -0.125408
0.773847 0.125000 -0.122565
0.759562 0.095671 -0.120303
0.749180 0.064705 -0.118658
0.742879 0.032632 -0.117660
0.740766 0.000000 -0.117326
0.742879 -0.032632 -0.117660
0.749180 -0.064705 -0.118658
0.759562 -0.095671 -0.120303
0.773847 -0.125000 -0.122565
0.791792 -0.152190 -0.125408
0.813088 -0.176777 -0.128781
0.837372 -0.198338 -0.132627
0.864227 -0.216506 -0.136880
0.893195 -0.230970 -0.141468
0.923780 -0.241481 -0.146312
0.955458 -0.247861 -0.151330
0.987688 -0.250000 -0.156435
1.019918 -0.247861 -0.161539
1.051596 -0.241481 -0.166557
1.082181 -0.230970 -0.171401
1.111149 -0.216506 -0.175989
1.138005 -0.198338 -0.180242
1.162289 -0.176777 -0.184088
1.183585 -0.152190 -0.187461
1.201529 -0.125000 -0.190304
1.215815 -0.095671 -0.192566
1.226197 -0.064705 -0.194211
1.232498 -0.032632 -0.195209
1.215462 0.000000 -0.291807
1.213383 0.032632 -0.291308
1.207179 0.064705 -0.289818
1.196958 0.095671 -0.287364
1.182894 0.125000 -0.283988
1.165228 0.152190 -0.279747
1.144262 0.176777 -0.274713
1.120355 0.198338 -0.268974
1.093916 0.216506 -0.262626
1.065397 0.230970 -0.255779
1.035287 0.241481 -0.248551
1.004100 0.247861 -0.241063
0.972370 0.250000 -0.233445
0.940640 0.247861 -0.225828
0.909453 0.241481 -0.218340
0.879342 0.230970 -0.211112
0.850824 0.216506 -0.204265
0.824385 0.198338 -0.197917
0.800478 0.176777 -0.192178
0.779512 0.152190 -0.187144
0.761846 0.125000 -0.182903
0.747782 0.095671 -0.179527
0.737561 0.064705 -0.177073
0.731357 0.032632 -0.175583
0.729277 0.000000 -0.175084
0.731357 -0.032632 -0.175583
0.737561 -0.064705 -0.177073
0.747782 -0.095671 -0.179527
0.761846 -0.125000 -0.182903
0.779512 -0.152190 -0.187144
0.800478 -0.176777 -0.192178
0.824385 -0.198338 -0.197917
0.850824 -0.216506 -0.204265
0.879342 -0.230970 -0.211112
0.909453 -0.241481 -0.218340
0.940640 -0.247861 -0.225828
0.972370 -0.250000 -0.233445
1.004100 -0.247861 -0.241063
1.035287 -0.241481 -0.248551
1.065397 -0.230970 -0.255779
1.093916 -0.216506 -0.262626
1.120355 -0.198338 -0.268974
1.144262 -0.176777 -0.274713
1.165228 -0.152190 -0.279747
1.182894 -0.125000 -0.283988
1.196958 -0.095671 -0.287364
1.207179 -0.064705 -0.289818
1.213383 -0.032632 -0.291308
1.188821 0.000000 -0.386271
1.186787 0.032632 -0.385610
1.180719 0.064705 -0.383639
1.170722 0.095671 -0.380391
1.156966 0.125000 -0.375921
1.139688 0.152190 -0.370307
1.119181 0.176777 -0.363644
1.095798 0.198338 -0.356046
1.069939 0.216506 -0.347644
1.042045 0.230970 -0.338581
1.012594 0.241481 -0.329012
0.982091 0.247861 -0.319101
0.951057 0.250000 -0.309017
0.920022 0.247861 -0.298933
0.889519 0.241481 -0.289022
0.860068 0.230970 -0.279453
0.832175 0.216506 -0.270390
0.806315 0.198338 -0.261988
0.782932 0.176777 -0.254390
0.762426 0.152190 -0.247727
0.745147 0.125000 -0.242113
0.731391 0.095671 -0.237643
0.721394 0.064705 -0.234395
0.715327 0.032632 -0.232424
0.713292 0.000000 -0.231763
0.715327 -0.032632 -0.232424
0.721394 -0.064705 -0.234395
0.731391 -0.095671 -0.237643
0.745147 -0.125000 -0.242113
0.762426 -0.152190 -0.247727
0.782932 -0.176777 -0.254390
0.806315 -0.198338 -0.261988
0.832175 -0.216506 -0.270390
0.860068 -0.230970 -0.279453
0.889519 -0.241481 -0.289022
0.920022 -0.247861 -0.298933
0.951057 -0.250000 -0.309017
0.982091 -0.247861 -0.319101
1.012594 -0.241481 -0.329012
1.042045 -0.230970 -0.338581
1.069939 -0.216506 -0.347644
1.095798 -0.198338 -0.356046
1.119181 -0.176777 -0.363644
1.139688 -0.152190 -0.370307
1.156966 -0.125000 -0.375921
1.170722 -0.095671 -0.380391
1.180719 -0.064705 -0.383639
1.186787 -0.032632 -0.385610
1.154850 0.000000 -0.478354
1.152874 0.032632 -0.477536
1.146979 0.064705 -0.475094
1.137268 0.095671 -0.471072
1.123905 0.125000 -0.465537
1.107120 0.152190 -0.458584
1.087200 0.176777 -0.450333
1.064485 0.198338 -0.440924
1.039365 0.216506 -0.430519
1.012268 0.230970 -0.419295
0.983659 0.241481 -0.407445
0.954027 0.247861 -0.395171
0.923880 0.250000 -0.382683
0.893732 0.247861 -0.370196
0.864100 0.241481 -0.357922
0.835491 0.230970 -0.346072
0.808395 0.216506 -0.334848
0.783274 0.198338 -0.324443
0.760559 0.176777 -0.315034
0.740639 0.152190 -0.306783
0.723854 0.125000 -0.299830
0.710491 0.095671 -0.294295
0.700780 0.064705 -0.290272
0.694886 0.032632 -0.287831
0.692910 0.000000 -0.287013
0.694886 -0.032632 -0.287831
0.700780 -0.064705 -0.290272
0.710491 -0.095671 -0.294295
0.723854 -0.125000 -0.299830
0.740639 -0.152190 -0.306783
0.760559 -0.176777 -0.315034
0.783274 -0.198338 -0.324443
0.808395 -0.216506 -0.334848
0.835491 -0.230970 -0.346072
0.864100 -0.241481 -0.357922
0.893732 -0.247861 -0.370196
0.923880 -0.250000 -0.382683
0.954027 -0.247861 -0.395171
0.983659 -0.241481 -0.407445
1.012268 -0.230970 -0.419295
1.039365 -0.216506 -0.430519
1.064485 -0.198338 -0.440924
1.087200 -0.176777 -0.450333
1.107120 -0.152190 -0.458584
1.123905 -0.125000 -0.465537
1.137268 -0.095671 -0.471072
1.146979 -0.064705 -0.475094
1.152874 -0.032632 -0.477536
1.113758 0.000000 -0.567488
1.111853 0.032632 -0.566517
1.106168 0.064705 -0.563621
1.096802 0.095671 -0.558849
1.083915 0.125000 -0.552282
1.067727 0.152190 -0.544034
1.048516 0.176777 -0.534245
1.026609 0.198338 -0.523083
1.002382 0.216506 -0.510739
0.976250 0.230970 -0.497424
0.948659 0.241481 -0.483366
0.920081 0.247861 -0.468805
0.891007 0.250000 -0.453990
0.861932 0.247861 -0.439176
0.833354 0.241481 -0.424615
0.805763 0.230970 -0.410557
0.779631 0.216506 -0.397242
0.755404 0.198338 -0.384898
0.733497 0.176777 -0.373736
0.714286 0.152190 -0.363947
0.698098 0.125000 -0.355699
0.685211 0.095671 -0.349132
0.675845 0.064705 -0.344360
0.670161 0.032632 -0.341464
0.668255 0.000000 -0.340493
0.670161 -0.032632 -0.341464
0.675845 -0.064705 -0.344360
0.685211 -0.095671 -0.349132
0.698098 -0.125000 -0.355699
0.714286 -0.152190 -0.363947
0.733497 -0.176777 -0.373736
0.755404 -0.198338 -0.384898
0.779631 -0.216506 -0.397242
0.805763 -0.230970 -0.410557
0.833354 -0.241481 -0.424615
0.861932 -0.247861 -0.439176
0.891007 -0.250000 -0.453990
0.920081 -0.247861 -0.468805
0.948659 -0.241481 -0.483366
0.976250 -0.230970 -0.497424
1.002382 -0.216506 -0.510739
1.026609 -0.198338 -0.523083
1.048516 -0.176777 -0.534245
1.067727 -0.152190 -0.544034
1.083915 -0.125000 -0.552282
1.096802 -0.095671 -0.558849
1.106168 -0.064705 -0.563621
1.111853 -0.032632 -0.566517
1.065800 0.000000 -0.653123
1.063977 0.032632 -0.652006
1.058537 0.064705 -0.648672
1.049574 0.095671 -0.643180
1.037242 0.125000 -0.635623
1.021751 0.152190 -0.626130
1.003367 0.176777 -0.614864
0.982404 0.198338 -0.602018
0.959220 0.216506 -0.587811
0.934213 0.230970 -0.572486
0.907810 0.241481 -0.556307
0.880463 0.247861 -0.539548
0.852640 0.250000 -0.522499
[...]
POINT_DATA 3840

VECTORS fields float
0.000003 0.000000 -1.000000
0.130533 -0.991444 -0.000051
0.249643 -0.967936 -0.027888
0.370513 -0.928467 0.025874
0.480820 -0.876819 -0.000000
0.600961 -0.799240 -0.007856
0.697648 -0.716383 0.009095
0.779684 -0.626174 -0.000000
0.854712 -0.519103 -0.000001
0.915143 -0.403129 -0.000001
0.959926 -0.280252 -0.000001
0.988288 -0.152599 -0.000001
0.999751 -0.022315 -0.000001
0.994111 0.108363 -0.000001
0.968532 0.248890 0.000151
0.920603 0.390500 0.000115
0.859563 0.511029 -0.000879
0.801474 0.598028 0.001488
0.707756 0.706457 -0.000002
0.608753 0.793360 -0.000003
0.519091 0.854719 -0.000003
0.403022 0.915190 -0.000004
0.268194 0.963277 -0.012981
0.131215 0.989195 0.065391
0.013123 0.000000 -0.999914
0.140068 -0.989779 0.026797
0.280045 -0.959987 -0.000006
0.403022 -0.915190 -0.000004
0.519091 -0.854719 -0.000003
0.608753 -0.793360 -0.000003
0.707756 -0.706457 -0.000002
0.806740 -0.590906 -0.000002
0.866020 -0.500009 -0.000001
0.915490 -0.402342 -0.000001
0.966212 -0.257748 -0.000001
0.994111 -0.108363 -0.000001
0.999751 0.022315 -0.000001
0.988288 0.152599 -0.000001
0.959926 0.280252 -0.000001
0.915143 0.403129 -0.000001
0.854712 0.519103 -0.000001
0.779684 0.626174 -0.000000
0.697648 0.716383 0.009095
0.600961 0.799240 -0.007856
0.480820 0.876819 -0.000000
0.370513 0.928467 0.025874
0.249643 0.967936 -0.027888
0.130533 0.991444 -0.000051
-0.091496 0.000000 -0.995805
0.102756 -0.940423 -0.324107
0.260352 -0.961268 -0.090450
0.385662 -0.915099 -0.117722
0.502576 -0.860931 -0.078831
0.612333 -0.784164 -0.100673
0.708340 -0.700604 -0.086067
0.795254 -0.597959 -0.100081
0.865184 -0.492365 -0.095047
0.926455 -0.362654 -0.100811
0.965810 -0.238004 -0.102788
0.988560 -0.109270 -0.103970
0.994475 0.012747 -0.104197
0.986092 0.129744 -0.103873
0.960676 0.257991 -0.102675
0.923483 0.370128 -0.100913
0.865638 0.490812 -0.098868
0.788299 0.607882 -0.095201
0.711126 0.697277 -0.090023
0.610702 0.786247 -0.094124
0.494076 0.864600 -0.091406
0.375585 0.921587 -0.098050
0.249062 0.960964 -0.120487
0.116915 0.982813 -0.142862
-0.065376 -0.000000 -0.997861
0.100888 -0.978873 -0.177847
0.227388 -0.965844 -0.124259
0.367476 -0.925656 -0.090122
0.494076 -0.864600 -0.091406
0.610702 -0.786247 -0.094124
0.711126 -0.697277 -0.090023
0.788299 -0.607882 -0.095201
0.865638 -0.490812 -0.098868
0.926738 -0.361804 -0.101265
0.960476 -0.258720 -0.102713
0.984836 -0.138884 -0.103964
0.994475 -0.012747 -0.104197
0.988560 0.109270 -0.103970
0.965810 0.238004 -0.102788
0.926455 0.362654 -0.100811
0.865184 0.492365 -0.095047
0.795254 0.597959 -0.100081
0.708340 0.700604 -0.086067
0.612333 0.784164 -0.100673
0.512484 0.853955 -0.090116
0.395574 0.913513 -0.094952
0.260352 0.961268 -0.090450
0.102756 0.940423 -0.324107
-0.169342 0.000000 -0.985557
0.069455 -0.913991 -0.399745
0.240105 -0.951625 -0.191729
0.346956 -0.909255 -0.229952
0.466068 -0.869397 -0.164103
0.576466 -0.795485 -0.186788
0.687122 -0.706536 -0.169322
0.776296 -0.600139 -0.192865
0.851431 -0.488250 -0.191511
0.896525 -0.394122 -0.202264
0.941673 -0.268276 -0.203175
0.969541 -0.130982 -0.206964
0.978215 0.008495 -0.207423
0.966786 0.151469 -0.205869
0.938609 0.278977 -0.202942
0.893998 0.401705 -0.198497
0.833670 0.517474 -0.192912
0.758564 0.624251 -0.186791
0.669783 0.720131 -0.181112
0.568571 0.803245 -0.177553
0.456075 0.871692 -0.179303
0.332890 0.922889 -0.193547
0.197306 0.950203 -0.241215
0.061959 0.921210 -0.384101
-0.148899 0.111750 -0.982518
0.062131 -0.921337 -0.383767
0.220135 -0.947048 -0.233753
0.342675 -0.921735 -0.181600
0.456075 -0.871692 -0.179303
0.568571 -0.803245 -0.177553
0.669783 -0.720131 -0.181112
0.758564 -0.624251 -0.186791
0.833670 -0.517474 -0.192912
0.893998 -0.401705 -0.198497
0.942106 -0.266533 -0.203461
0.967949 -0.143051 -0.206423
0.978215 -0.008495 -0.207423
0.969541 0.130982 -0.206964
0.943986 0.259009 -0.204464
0.901926 0.382569 -0.200426
0.851431 0.488250 -0.191511
0.776296 0.600139 -0.192865
0.687122 0.706536 -0.169322
0.576466 0.795485 -0.186788
0.455013 0.871594 -0.182448
0.336127 0.915594 -0.220696
0.240105 0.951625 -0.191729
0.069455 0.913991 -0.399745
-0.233442 0.000000 -0.972371
-0.056866 -0.791797 -0.608132
0.168057 -0.931619 -0.322246
0.324360 -0.899780 -0.291866
0.465069 -0.845962 -0.260881
0.575748 -0.774308 -0.262604
0.669425 -0.694850 -0.262780
0.735207 -0.615445 -0.284075
0.813526 -0.506906 -0.284996
0.874561 -0.381380 -0.299488
0.914476 -0.271098 -0.300400
0.939733 -0.152131 -0.306200
0.951123 -0.022248 -0.308009
0.944166 0.120075 -0.306811
0.921023 0.244886 -0.302899
0.879556 0.372083 -0.296538
0.818426 0.497475 -0.287573
0.753017 0.594823 -0.281338
0.665622 0.696299 -0.268543
0.558379 0.786784 -0.263028
0.445370 0.855729 -0.263387
0.329679 0.898838 -0.288795
0.187330 0.928573 -0.320404
-0.014950 0.827992 -0.560541
-0.237256 -0.085387 -0.967687
0.005340 -0.851566 -0.524221
0.187330 -0.928573 -0.320404
0.329679 -0.898838 -0.288795
0.445370 -0.855729 -0.263387
0.558379 -0.786784 -0.263028
0.658671 -0.702553 -0.269393
0.745658 -0.605419 -0.278320
0.818426 -0.497475 -0.287573
0.879556 -0.372083 -0.296538
0.921023 -0.244886 -0.302899
0.944166 -0.120075 -0.306811
0.951123 0.022248 -0.308009
0.939733 0.152131 -0.306200
0.911527 0.279337 -0.301812
0.869764 0.393245 -0.298108
0.813526 0.506906 -0.284996
0.735207 0.615445 -0.284075
0.669425 0.694850 -0.262780
0.575748 0.774308 -0.262604
0.465069 0.845962 -0.260881
0.324360 0.899780 -0.291866
0.168057 0.931619 -0.322246
-0.056866 0.791797 -0.608132
-0.309015 0.000000 -0.951057
-0.072847 -0.789329 -0.609633
0.133632 -0.918702 -0.371656
0.249658 -0.888234 -0.385630
0.398523 -0.854979 -0.331950
0.504789 -0.787519 -0.353556
0.616197 -0.707509 -0.346023
0.705846 -0.602628 -0.372317
0.783987 -0.498064 -0.370535
0.838146 -0.380261 -0.391040
0.884064 -0.249393 -0.395265
0.909420 -0.108753 -0.401407
0.915201 0.012650 -0.402800
0.906533 0.129301 -0.401844
0.879367 0.265407 -0.395313
0.834955 0.392443 -0.385796
0.788463 0.484617 -0.378777
0.715051 0.595377 -0.366372
0.631722 0.691384 -0.350592
0.537827 0.769383 -0.344663
0.414693 0.845518 -0.336348
0.261969 0.893155 -0.365576
0.104970 0.905185 -0.411851
-0.107781 0.757948 -0.643350
-0.309010 -0.000000 -0.951059
-0.107781 -0.757948 -0.643350
0.104970 -0.905185 -0.411851
0.261969 -0.893155 -0.365576
0.414693 -0.845518 -0.336348
0.537827 -0.769383 -0.344663
0.637169 -0.684345 -0.354523
0.722295 -0.586215 -0.366937
0.788463 -0.484617 -0.378777
0.834955 -0.392443 -0.385796
0.879367 -0.265407 -0.395313
0.906533 -0.129301 -0.401844
0.915201 -0.012650 -0.402800
0.909420 0.108753 -0.401407
0.884064 0.249393 -0.395265
0.838146 0.380261 -0.391040
0.783987 0.498064 -0.370535
0.705846 0.602628 -0.372317
0.616197 0.707509 -0.346023
0.504789 0.787519 -0.353556
0.398523 0.854979 -0.331950
0.249658 0.888234 -0.385630
0.133632 0.918702 -0.371656
-0.072847 0.789329 -0.609633
-0.394737 0.000000 -0.918794
-0.190880 -0.670833 -0.716623
0.038959 -0.877014 -0.478882
0.199890 -0.874152 -0.442608
0.365872 -0.846820 -0.386050
0.466773 -0.773078 -0.429505
0.570419 -0.706975 -0.418101
0.656893 -0.608274 -0.445527
0.732287 -0.507045 -0.454601
0.790182 -0.388137 -0.474302
0.833131 -0.269852 -0.482776
0.857663 -0.151388 -0.491422
0.869374 -0.010198 -0.494050
0.862503 0.116324 -0.492501
0.838428 0.247058 -0.485799
0.799598 0.366571 -0.475677
0.742247 0.485740 -0.461656
0.665188 0.600815 -0.443334
0.577461 0.695927 -0.426877
0.474779 0.776919 -0.413499
0.369800 0.836661 -0.404037
0.240479 0.873083 -0.424141
0.076671 0.873494 -0.480759
-0.142259 0.750374 -0.645524
-0.382682 -0.000000 -0.923880
-0.142259 -0.750374 -0.645524
0.076671 -0.873494 -0.480759
0.240479 -0.873083 -0.424141
0.369800 -0.836661 -0.404037
0.474779 -0.776919 -0.413499
0.577461 -0.695927 -0.426877
0.665188 -0.600815 -0.443334
0.742247 -0.485740 -0.461656
0.799598 -0.366571 -0.475677
0.838428 -0.247058 -0.485799
0.862503 -0.116324 -0.492501
0.869374 0.010198 -0.494050
0.857663 0.151388 -0.491422
0.833131 0.269852 -0.482776
0.790182 0.388137 -0.474302
0.732287 0.507045 -0.454601
0.656893 0.608274 -0.445527
0.570419 0.706975 -0.418101
0.466773 0.773078 -0.429505
0.365872 0.846820 -0.386050
0.204373 0.866432 -0.455551
0.068626 0.892535 -0.445727
-0.190880 0.670833 -0.716623
-0.465608 0.000000 -0.884991
-0.272924 -0.618027 -0.737262
-0.022038 -0.841743 -0.539428
0.175663 -0.868402 -0.463704
0.320867 -0.830926 -0.454540
0.412818 -0.766632 -0.491789
0.525396 -0.693044 -0.493608
0.620783 -0.593025 -0.512786
0.690592 -0.481460 -0.539703
0.742320 -0.378712 -0.552756
0.786033 -0.248053 -0.566235
0.809559 -0.116538 -0.575355
0.816196 -0.000829 -0.577775
0.807975 0.128310 -0.575076
0.783040 0.255680 -0.566988
0.742545 0.376589 -0.553902
0.685707 0.492360 -0.536084
0.613366 0.598099 -0.515809
0.519995 0.699142 -0.490720
0.409723 0.776751 -0.478315
0.300721 0.831035 -0.467919
0.157032 0.863029 -0.480126
-0.031054 0.844211 -0.535111
-0.282599 0.621911 -0.730318
-0.465647 0.000000 -0.884971
-0.282599 -0.621911 -0.730318
-0.031054 -0.844211 -0.535111
0.139622 -0.860870 -0.489294
0.294068 -0.836707 -0.462002
0.409723 -0.776751 -0.478315
0.519995 -0.699142 -0.490720
0.613366 -0.598099 -0.515809
0.685707 -0.492360 -0.536084
0.742545 -0.376589 -0.553902
0.783040 -0.255680 -0.566988
0.807975 -0.128310 -0.575076
0.816196 0.000829 -0.577775
0.809559 0.116538 -0.575355
0.786033 0.248053 -0.566235
0.742320 0.378712 -0.552756
0.690592 0.481460 -0.539703
0.620783 0.593025 -0.512786
0.525396 0.693044 -0.493608
0.412818 0.766632 -0.491789
0.320867 0.830926 -0.454540
0.156268 0.863174 -0.480115
-0.034683 0.845759 -0.532437
-0.272924 0.618027 -0.737262
-0.524724 0.110232 -0.844105
-0.369575 -0.558834 -0.742374
-0.070075 -0.831606 -0.550928
0.091396 -0.847562 -0.522767
0.233978 -0.828009 -0.509564
0.367465 -0.758552 -0.538116
0.484369 -0.674448 -0.557231
0.566101 -0.587413 -0.578338
0.629797 -0.483001 -0.608331
0.691413 -0.357251 -0.627949
0.727218 -0.243210 -0.641874
0.746873 -0.129107 -0.652313
0.755884 0.008311 -0.654653
0.745319 0.149607 -0.649705
0.720249 0.267597 -0.640026
0.680107 0.384020 -0.624486
0.617143 0.509052 -0.600001
0.543002 0.612131 -0.574843
0.460117 0.698336 -0.548287
0.355214 0.768737 -0.531852
0.220181 0.829910 -0.512610
0.067865 0.850078 -0.522266
-0.109472 0.816208 -0.567293
-0.356631 0.585868 -0.727718
-0.522498 0.000000 -0.852641
-0.356631 -0.585868 -0.727718
-0.109472 -0.816208 -0.567293
0.079197 -0.845321 -0.528357
0.230984 -0.829776 -0.508053
0.355214 -0.768737 -0.531852
0.460117 -0.698336 -0.548287
0.543002 -0.612131 -0.574843
0.617143 -0.509052 -0.600001
0.680107 -0.384020 -0.624486
0.720249 -0.267597 -0.640026
0.745319 -0.149607 -0.649705
0.755884 -0.008311 -0.654653
0.746873 0.129107 -0.652313
0.727218 0.243210 -0.641874
0.691413 0.357251 -0.627949
0.629797 0.483001 -0.608331
0.566101 0.587413 -0.578338
0.484369 0.674448 -0.557231
0.367465 0.758552 -0.538116
0.233978 0.828009 -0.509564
0.091396 0.847562 -0.522767
-0.070075 0.831606 -0.550928
-0.351952 0.574100 -0.739283
-0.578233 -0.087903 -0.811122
-0.418606 -0.573368 -0.704285
-0.185506 -0.787620 -0.587573
0.002222 -0.824248 -0.566225
0.189865 -0.821429 -0.537778
0.300123 -0.759129 -0.577624
0.389575 -0.689777 -0.610278
0.477291 -0.609113 -0.633384
0.550911 -0.507261 -0.662709
0.614734 -0.384724 -0.688542
0.656980 -0.254649 -0.709600
0.680609 -0.128669 -0.721260
0.689129 -0.000706 -0.724638
0.682305 0.115103 -0.721949
0.659352 0.244787 -0.710869
0.622270 0.362588 -0.693765
0.567516 0.481025 -0.668237
0.498839 0.581668 -0.642512
0.412871 0.678641 -0.607441
0.309487 0.750082 -0.584461
0.187446 0.811204 -0.553906
0.034682 0.826203 -0.562304
-0.154096 0.796945 -0.584065
-0.399475 0.585768 -0.705191
-0.587786 0.000000 -0.809016
-0.399475 -0.585768 -0.705191
-0.154096 -0.796945 -0.584065
0.034682 -0.826203 -0.562304
0.187446 -0.811204 -0.553906
0.309487 -0.750082 -0.584461
0.412871 -0.678641 -0.607441
0.498839 -0.581668 -0.642512
0.567516 -0.481025 -0.668237
0.622270 -0.362588 -0.693765
0.659352 -0.244787 -0.710869
0.682305 -0.115103 -0.721949
0.689129 0.000706 -0.724638
0.680609 0.128669 -0.721260
0.656980 0.254649 -0.709600
0.614734 0.384724 -0.688542
0.550911 0.507261 -0.662709
0.479664 0.600906 -0.639401
0.404422 0.684205 -0.606882
0.300123 0.759129 -0.577624
0.189865 0.821429 -0.537778
0.002222 0.824248 -0.566225
-0.185506 0.787620 -0.587573
-0.444841 0.521022 -0.728459
-0.639446 0.000000 -0.768836
-0.490197 -0.541052 -0.683351
-0.241946 -0.764079 -0.598035
-0.021648 -0.826698 -0.562229
0.111203 -0.803824 -0.584381
0.214402 -0.762933 -0.609889
0.339639 -0.680684 -0.649088
0.431143 -0.579261 -0.691789
0.495359 -0.487841 -0.718770
0.551103 -0.375776 -0.745035
0.582223 -0.265387 -0.768496
0.608385 -0.137745 -0.781597
0.617331 -0.013289 -0.786591
0.611071 0.117760 -0.782768
0.587065 0.253367 -0.768869
0.549061 0.372311 -0.748276
0.500772 0.476575 -0.722567
0.430463 0.581594 -0.690254
0.342949 0.682573 -0.645352
0.233305 0.749379 -0.619677
0.117083 0.809203 -0.575745
-0.049866 0.809582 -0.584885
-0.234262 0.777660 -0.583410
-0.490044 0.523370 -0.697095
-0.659374 0.000000 -0.751816
-0.490044 -0.523370 -0.697095
-0.234262 -0.777660 -0.583410
-0.049866 -0.809582 -0.584885
0.117083 -0.809203 -0.575745
0.233305 -0.749379 -0.619677
0.342949 -0.682573 -0.645352
0.430463 -0.581594 -0.690254
0.500772 -0.476575 -0.722567
0.549061 -0.372311 -0.748276
0.587065 -0.253367 -0.768869
0.611071 -0.117760 -0.782768
0.617331 0.013289 -0.786591
0.608385 0.137745 -0.781597
0.582223 0.265387 -0.768496
0.551103 0.375776 -0.745035
0.495359 0.487841 -0.718770
0.419652 0.587643 -0.691786
0.335360 0.687890 -0.643693
0.214402 0.762933 -0.609889
0.111203 0.803824 -0.584381
-0.021648 0.826698 -0.562229
-0.241946 0.764079 -0.598035
-0.490197 0.541052 -0.683351
-0.697795 -0.000000 -0.716297
-0.530131 -0.561334 -0.635505
-0.294360 -0.745189 -0.598369
-0.091496 -0.820997 -0.563553
0.030868 -0.785668 -0.617877
0.184688 -0.747180 -0.638446
0.287874 -0.671143 -0.683151
0.350286 -0.584876 -0.731587
0.430744 -0.479193 -0.764744
0.482564 -0.362011 -0.797546
0.514885 -0.244174 -0.821749
0.537376 -0.115105 -0.835451
0.543392 0.008219 -0.839439
0.534012 0.148262 -0.832376
0.510875 0.265167 -0.817737
0.473818 0.379932 -0.794448
0.415725 0.503026 -0.757718
0.345955 0.603527 -0.718381
0.272959 0.676591 -0.683899
0.176294 0.741257 -0.647656
0.052129 0.801434 -0.595807
-0.116715 0.796600 -0.593133
-0.288270 0.758672 -0.584224
-0.556033 0.515330 -0.652121
-0.707103 0.000000 -0.707111
-0.556033 -0.515330 -0.652121
-0.288270 -0.758672 -0.584224
-0.116715 -0.796600 -0.593133
0.052129 -0.801434 -0.595807
0.176294 -0.741257 -0.647656
0.272959 -0.676591 -0.683899
0.345955 -0.603527 -0.718381
0.415725 -0.503026 -0.757718
0.473818 -0.379932 -0.794448
0.510875 -0.265167 -0.817737
0.534012 -0.148262 -0.832376
0.543392 -0.008219 -0.839439
0.537376 0.115105 -0.835451
0.514885 0.244174 -0.821749
0.482564 0.362011 -0.797546
0.430744 0.479193 -0.764744
0.350286 0.584876 -0.731587
0.287874 0.671143 -0.683151
0.184688 0.747180 -0.638446
0.030868 0.785668 -0.617877
-0.091496 0.820997 -0.563553
-0.294360 0.745189 -0.598369
-0.530131 0.561334 -0.635505
-0.751847 0.000000 -0.659338
-0.608500 -0.524179 -0.595788
-0.392654 -0.701867 -0.594310
-0.155165 -0.810202 -0.565241
-0.034063 -0.778239 -0.627044
0.116711 -0.750107 -0.650937
0.188225 -0.677816 -0.710730
0.277257 -0.591087 -0.757459
0.355480 -0.486241 -0.798251
0.393939 -0.382353 -0.835834
0.430365 -0.272631 -0.860499
0.456120 -0.136975 -0.879313
0.464343 -0.013231 -0.885557
0.458893 0.105610 -0.882193
0.440037 0.230878 -0.867792
0.406903 0.351529 -0.843123
0.359242 0.464998 -0.809149
0.291708 0.578644 -0.761629
0.202395 0.669807 -0.714419
0.105098 0.742998 -0.660990
-0.011860 0.794544 -0.607091
-0.181190 0.785328 -0.591972
-0.374665 0.726329 -0.576257
-0.615746 0.511127 -0.599672
-0.751816 -0.000000 -0.659374
-0.615746 -0.511127 -0.599672
-0.374665 -0.726329 -0.576257
-0.181190 -0.785328 -0.591972
-0.011860 -0.794544 -0.607091
0.105098 -0.742998 -0.660990
0.202395 -0.669807 -0.714419
0.291708 -0.578644 -0.761629
0.359242 -0.464998 -0.809149
0.406903 -0.351529 -0.843123
0.440037 -0.230878 -0.867792
0.458893 -0.105610 -0.882193
0.464343 0.013231 -0.885557
0.456120 0.136975 -0.879313
0.430365 0.272631 -0.860499
0.393939 0.382353 -0.835834
0.355480 0.486241 -0.798251
0.277257 0.591087 -0.757459
0.188225 0.677816 -0.710730
0.116711 0.750107 -0.650937
-0.034063 0.778239 -0.627044
-0.155165 0.810202 -0.565241
-0.392654 0.701867 -0.594310
-0.608500 0.524179 -0.595788
-0.809017 -0.000000 -0.587785
-0.671737 -0.478108 -0.565847
-0.461994 -0.688044 -0.559604
-0.244362 -0.790301 -0.561882
-0.081609 -0.782560 -0.617203
0.059059 -0.737728 -0.672510
0.127264 -0.665831 -0.735169
0.223760 -0.578567 -0.784342
0.285976 -0.473006 -0.833357
0.321788 -0.369698 -0.871651
0.361658 -0.243865 -0.899852
0.380463 -0.114538 -0.917676
0.385873 0.008171 -0.922516
0.377571 0.147543 -0.914151
0.356829 0.262742 -0.896460
0.325056 0.369871 -0.870365
0.274776 0.489939 -0.827320
0.210652 0.594174 -0.776262
0.134103 0.666833 -0.733042
0.035915 0.745334 -0.665723
-0.087831 0.790041 -0.606730
-0.247803 0.780859 -0.573457
-0.455985 0.694740 -0.556250
-0.670335 0.494296 -0.553464
-0.801238 0.000000 -0.598346
-0.670335 -0.494296 -0.553464
-0.455985 -0.694740 -0.556250
-0.247803 -0.780859 -0.573457
-0.087831 -0.790041 -0.606730
0.035915 -0.745334 -0.665723
0.134103 -0.666833 -0.733042
0.210652 -0.594174 -0.776262
0.274776 -0.489939 -0.827320
0.325056 -0.369871 -0.870365
0.356829 -0.262742 -0.896460
0.377571 -0.147543 -0.914151
0.385873 -0.008171 -0.922516
0.380463 0.114538 -0.917676
0.361658 0.243865 -0.899852
0.321788 0.369698 -0.871651
0.285976 0.473006 -0.833357
0.223760 0.578567 -0.784342
0.127264 0.665831 -0.735169
0.059059 0.737728 -0.672510
-0.081609 0.782560 -0.617203
-0.244362 0.790301 -0.561882
-0.461994 0.688044 -0.559604
-0.671737 0.478108 -0.565847
-0.852639 -0.000000 -0.522500
-0.742285 -0.421326 -0.521054
-0.460671 -0.723829 -0.513667
-0.282124 -0.773613 -0.567387
-0.124520 -0.787947 -0.603020
-0.024701 -0.735571 -0.676997
0.059852 -0.663378 -0.745887
0.140882 -0.593115 -0.792696
0.192288 -0.498684 -0.845186
0.243093 -0.378146 -0.893259
0.280853 -0.252379 -0.925973
0.297447 -0.126936 -0.946262
0.304388 -0.000699 -0.952548
0.298626 0.113613 -0.947584
0.280761 0.240824 -0.929073
0.248000 0.369076 -0.895700
0.204278 0.482250 -0.851884
0.148667 0.570294 -0.807876
0.073483 0.660262 -0.747432
-0.017925 0.740158 -0.672194
-0.140350 0.777553 -0.612954
-0.291153 0.778030 -0.556686
-0.495535 0.687588 -0.530723
-0.702189 0.499527 -0.507350
-0.852641 0.000000 -0.522497
-0.702189 -0.499527 -0.507350
-0.495535 -0.687588 -0.530723
-0.291153 -0.778030 -0.556686
-0.140350 -0.777553 -0.612954
-0.017925 -0.740158 -0.672194
0.073483 -0.660262 -0.747432
0.148667 -0.570294 -0.807876
0.204278 -0.482250 -0.851884
0.248000 -0.369076 -0.895700
0.280761 -0.240824 -0.929073
0.298626 -0.113613 -0.947584
0.304388 0.000699 -0.952548
0.297447 0.126936 -0.946262
0.280853 0.252379 -0.925973
0.243093 0.378146 -0.893259
0.192288 0.498684 -0.845186
0.140882 0.593115 -0.792696
0.059852 0.663378 -0.745887
-0.024701 0.735571 -0.676997
-0.124520 0.787947 -0.603020
-0.282124 0.773613 -0.567387
-0.460671 0.723829 -0.513667
-0.742285 0.421326 -0.521054
-0.884993 -0.000000 -0.465604
-0.739967 -0.499411 -0.450598
-0.536347 -0.693039 -0.481693
-0.367064 -0.761148 -0.534712
-0.180561 -0.784288 -0.593540
-0.085686 -0.732999 -0.674811
-0.005963 -0.661509 -0.749914
0.074833 -0.581054 -0.810418
0.135547 -0.474370 -0.869828
0.173782 -0.357281 -0.917687
0.197991 -0.263586 -0.944099
0.215676 -0.136197 -0.966920
0.223133 -0.000698 -0.974788
0.217696 0.125428 -0.967924
0.199095 0.258656 -0.945229
0.166593 0.388168 -0.906406
0.126380 0.491838 -0.861466
0.070185 0.585589 -0.807564
-0.004453 0.672046 -0.740496
-0.078576 0.737703 -0.670537
-0.191337 0.766274 -0.613363
-0.330115 0.776974 -0.536037
-0.544154 0.679424 -0.492219